# volRat = 0.650000
# viscRat = 5.000000
# alpha = 0.750000
# shRate = 2.598000
# tnum = 6000
# time = 6.150801
VARIABLES = X, Y, Z, U, V, W, F_B0, F_B1, F_B2, F_0, F_1, F_2, T
ZONE N=2562 E=5120 F=FEPOINT ET=TRIANGLE
1.6432578 0.3592271 0.6212298 0.128465 -0.031027 -0.000001 3.1558186 13.0924300 0.0000037 24.1851773 48.3368572 0.0009374 20.4751164
-1.6575045 0.5787493 0.6212298 0.124363 0.022673 -0.000004 -2.6045638 14.3060031 0.0000044 -22.3160795 52.3786141 0.0021166 19.6537931
1.6575050 -0.5787469 0.6212298 -0.124364 -0.022673 0.000004 2.6045497 -14.3059754 0.0000044 22.3164218 -52.3783634 -0.0021795 19.6526023
-1.6432575 -0.3592249 0.6212298 -0.128466 0.031029 0.000002 -3.1558682 -13.0926038 0.0000036 -24.1836732 -48.3376656 -0.0010167 20.4780559
0.9815682 -0.0442229 1.1293192 0.007420 0.029965 -0.001186 -1.8364114 1.2077440 17.1334857 -2.2774968 2.9389498 59.1787537 22.6533997
0.9815681 -0.0442229 0.1131403 0.007410 0.029949 0.001061 -1.8215249 1.1979797 -16.9946490 -2.2647803 2.9489700 -59.0413819 22.6508618
-0.9815680 0.0442234 1.1293194 -0.007444 -0.029919 -0.001392 1.8639910 -1.2259246 17.3908431 2.3067920 -2.9827881 59.4275912 22.6535183
-0.9815680 0.0442234 0.1131402 -0.007453 -0.029936 0.001501 1.8770027 -1.2345050 -17.5123090 2.3183465 -2.9706571 -59.5479136 22.6559098
-0.0494160 0.3441770 0.8391277 0.073589 -0.007328 0.002283 -6.9789719 -72.6490775 -42.2955513 -2.2500041 -20.6278817 -7.8436548 25.6444667
0.0494161 -0.3441741 0.8391263 -0.073342 0.009073 0.001394 5.8742874 61.1506572 -35.6011236 1.1351328 9.2242055 -1.4400625 25.5819066
-0.0494161 0.3441762 0.4033325 0.073371 -0.009149 -0.001337 -5.8738385 -61.1428501 35.5966126 -1.1329107 -9.2066196 1.4596311 25.5890346
0.0494160 -0.3441752 0.4033328 -0.073567 0.007184 -0.002375 6.9909088 72.7763443 42.3694684 2.2615941 20.7605494 7.8934082 25.6389429
1.6663458 0.3519422 0.6728503 0.128600 -0.033659 -0.000096 -3.4057135 -13.0329659 -1.1804726 23.3115470 37.4629300 4.3602068 20.3023321
1.6833572 0.3390515 0.7292355 0.125649 -0.035683 -0.000011 -2.7186737 -9.5893942 -1.9858082 25.0507716 38.1666689 10.0941633 19.8641155
1.6914996 0.3207795 0.7882123 0.120710 -0.036596 0.000110 -2.5934282 -8.5781408 -2.8881752 25.6380276 36.8337186 15.7940312 19.6867951
1.6889366 0.2974898 0.8473105 0.113428 -0.036035 0.000242 -2.3313502 -7.3755262 -3.5675254 25.7126614 35.0952060 21.6063864 19.3849445
1.6747512 0.2697964 0.9043848 0.104628 -0.033964 0.000158 -2.0347316 -6.2997533 -4.1056213 24.8869092 32.7462190 27.1790111 19.3955470
1.6487656 0.2386405 0.9574326 0.094327 -0.030201 -0.000199 -1.6553908 -5.1535073 -4.3578280 23.3977153 30.0076129 32.3694097 19.3149289
1.6114531 0.2051900 1.0047959 0.083413 -0.025009 -0.000781 -1.2715247 -4.1152412 -4.4115176 21.2059933 27.0166567 36.9635872 19.5517494
1.5637982 0.1706959 1.0453002 0.072144 -0.018536 -0.001535 -0.9054283 -3.1839729 -4.2676384 18.5873381 23.8435929 40.8771276 19.6964830
1.5071142 0.1363409 1.0783169 0.061317 -0.011321 -0.002280 -0.6005531 -2.4494251 -4.0776119 15.6081185 20.6507001 44.0027203 20.1221908
1.4428617 0.1031276 1.1037328 0.051008 -0.003664 -0.002924 -0.3474937 -1.8436981 -3.8107149 12.5801246 17.4807967 46.4235578 20.3920737
1.3725070 0.0718184 1.1218514 0.041693 0.003875 -0.003309 -0.1508896 -1.3744046 -3.5493287 9.5579476 14.4943262 48.2315520 20.9225356
1.2974493 0.0429290 1.1332749 0.033192 0.010997 -0.003399 -0.0014518 -1.0088398 -3.3023860 6.7585903 11.6267513 49.4830727 21.2227070
1.2190447 0.0167615 1.1387930 0.025698 0.017311 -0.003214 0.1107297 -0.7317663 -3.1161793 4.1665414 9.0086199 50.3508565 21.7565082
1.1387083 -0.0065495 1.1393171 0.018922 0.022712 -0.002684 0.2187342 -0.5740861 -3.3237413 1.9700944 6.4733015 50.5703172 22.0223816
1.0586452 -0.0268738 1.1358564 0.013005 0.026856 -0.001912 0.5319506 -0.6765762 -5.8399103 0.0409803 4.1474477 49.9553740 22.5115061
1.7690627 -0.5487780 0.6869621 -0.117656 -0.037471 -0.001012 -2.3031775 7.2626059 -0.9547811 30.0051844 -41.5856817 6.8024884 18.0592371
1.7862615 -0.5290753 0.7551042 -0.112795 -0.040806 -0.001506 -2.2278538 6.2276897 -1.7710125 31.8032515 -40.1538152 13.8883252 17.6748700
1.7908544 -0.5019749 0.8238097 -0.106141 -0.042697 -0.001997 -1.9159318 4.8713440 -2.2546480 32.5800145 -37.7172895 21.2512902 17.3490449
1.7822082 -0.4679109 0.8904511 -0.097539 -0.042780 -0.002158 -1.5425905 3.6433666 -2.4608751 32.1171908 -34.4322828 28.2417072 17.2308750
1.7600985 -0.4280308 0.9524058 -0.087435 -0.040843 -0.001870 -1.1940799 2.6719030 -2.4992422 30.5540250 -30.4842589 34.5537523 17.2418226
1.7250593 -0.3839461 1.0074308 -0.076043 -0.036786 -0.001269 -0.9123447 1.9727144 -2.4932148 27.9736241 -26.1544959 39.8806155 17.4756693
1.6782761 -0.3374662 1.0539625 -0.064003 -0.030811 -0.000482 -0.6998301 1.4935195 -2.5344859 24.6908934 -21.6609572 44.1261874 17.8503695
1.6213413 -0.2903343 1.0912261 -0.051725 -0.023270 0.000289 -0.5267679 1.1378280 -2.6190298 20.9886442 -17.2557122 47.2322562 18.3525723
1.5559824 -0.2440344 1.1191698 -0.039704 -0.014775 0.000844 -0.3725320 0.8439284 -2.7152349 17.1946457 -13.0890139 49.3929426 18.9373886
1.4838501 -0.1997033 1.1382978 -0.028219 -0.005910 0.001071 -0.2273955 0.5776681 -2.7650374 13.4752093 -9.2693654 50.7127947 19.5810612
1.4063915 -0.1581298 1.1494707 -0.017688 0.002636 0.000924 -0.0981378 0.3444718 -2.8035465 10.0525558 -5.7917186 51.4299659 20.2143173
1.3247942 -0.1198090 1.1537418 -0.008167 0.010472 0.000446 0.0145189 0.1337932 -2.7370537 6.9680703 -2.7223750 51.7155305 20.8389208
1.2399328 -0.0850123 1.1522236 0.000181 0.017181 -0.000283 0.1014564 -0.0398019 -2.5845234 4.2669827 -0.0036375 51.8083843 21.4497801
1.1520715 -0.0539280 1.1460010 0.007310 0.022647 -0.001129 0.1535900 -0.1624641 -2.2778169 1.9556410 2.3637681 51.8003813 21.9813807
1.8542451 -0.5153231 0.6932558 -0.110618 -0.051517 -0.000886 -1.9620540 4.2268100 -0.6738467 38.4248283 -39.8076860 7.7198722 16.5164429
1.8702069 -0.4890026 0.7673191 -0.104257 -0.055488 -0.001767 -1.3230492 2.5151031 -0.8767911 40.4382293 -37.3972602 15.9169258 15.9216776
1.8704038 -0.4554621 0.8405891 -0.095576 -0.057039 -0.002117 -0.7343553 1.2580234 -0.7255671 40.7627464 -34.1463618 23.9141107 15.7518630
1.8549430 -0.4155373 0.9100614 -0.085361 -0.056290 -0.002076 -0.3128291 0.4901547 -0.4218808 39.5648332 -30.0298244 31.3506591 15.6355838
1.8244252 -0.3708190 0.9729477 -0.073444 -0.052747 -0.001642 -0.1805863 0.2615414 -0.3213291 36.8219830 -25.4624795 37.7435766 15.9567733
1.7801949 -0.3232722 1.0271201 -0.060984 -0.046813 -0.000875 -0.2138292 0.2879270 -0.4985180 33.0598468 -20.6420540 42.8662835 16.3015175
1.7241403 -0.2748626 1.0713653 -0.048104 -0.038664 -0.000079 -0.3355452 0.4194985 -1.0370004 28.5372815 -15.9126548 46.6169310 17.0139993
1.6583506 -0.2272805 1.1053826 -0.035575 -0.029117 0.000532 -0.3705296 0.4236049 -1.5643906 23.8403613 -11.4626644 49.2035660 17.6521598
1.5848025 -0.1818028 1.1295896 -0.023567 -0.018827 0.000778 -0.3500905 0.3482294 -2.1358664 19.1571015 -7.3992090 50.7364859 18.5285717
1.5051529 -0.1392871 1.1448736 -0.012675 -0.008623 0.000639 -0.2499383 0.1802000 -2.4524968 14.8506023 -3.7613784 51.5292577 19.2177047
1.4206137 -0.1002419 1.1523523 -0.002711 0.001027 0.000108 -0.1321961 -0.0073341 -2.6943157 10.8918450 -0.5977202 51.7652832 20.1092816
1.3318227 -0.0649351 1.1532062 0.005789 0.009542 -0.000699 -0.0111136 -0.1845933 -2.6953503 7.4979402 2.1845651 51.6742745 20.7091269
1.2385279 -0.0335598 1.1485467 0.013169 0.016828 -0.001679 0.0958433 -0.3545898 -2.8295046 4.4907350 4.5390741 51.2923109 21.5192114
1.9347531 -0.4698443 0.6988419 -0.100405 -0.067210 -0.000990 0.4487293 -0.6725854 0.1324246 47.8643507 -36.3280245 8.7246186 14.7125346
1.9468174 -0.4366382 0.7779861 -0.091848 -0.071041 -0.001542 1.7291339 -2.2581092 0.9952066 49.6292330 -33.0915354 17.7134208 14.2572526
1.9404964 -0.3967109 0.8549511 -0.081240 -0.071880 -0.001786 2.4294231 -2.7990706 2.1052122 49.1951167 -28.8894648 26.3928125 14.0801223
1.9164397 -0.3515179 0.9262223 -0.069049 -0.069353 -0.001414 2.3475889 -2.3951438 2.8008447 46.6901383 -24.1386948 34.0367109 14.2832327
1.8761335 -0.3031080 0.9889211 -0.056029 -0.063701 -0.000694 1.6594486 -1.4884949 2.6323332 42.5201248 -19.0447436 40.3103005 14.7739387
1.8218010 -0.2536522 1.0412072 -0.042689 -0.055228 0.000109 0.8041260 -0.6181334 1.6822847 37.2242293 -14.0354853 44.9958177 15.5322813
1.7559910 -0.2050530 1.0823758 -0.029657 -0.044755 0.000723 0.1316171 -0.0811948 0.3669421 31.4805463 -9.3110009 48.2267905 16.4122514
1.6811416 -0.1587397 1.1126723 -0.017328 -0.033054 0.000973 -0.2376796 0.0974060 -0.9086367 25.7102681 -5.0653477 50.1592244 17.3881731
1.5992720 -0.1156454 1.1329726 -0.006057 -0.021147 0.000768 -0.3441110 0.0274016 -1.9040672 20.2809016 -1.3030396 51.1381283 18.3679710
1.5118152 -0.0762992 1.1444779 0.003979 -0.009690 0.000142 -0.2814366 -0.1585981 -2.5003545 15.3943525 1.9328472 51.4309083 19.3035738
1.4195150 -0.0409688 1.1484772 0.012697 0.000698 -0.000815 -0.1555260 -0.3689644 -2.8396854 11.0783664 4.7245364 51.2848645 20.1941947
1.3222891 -0.0098360 1.1462101 0.019977 0.009782 -0.001979 -0.0171107 -0.5561381 -2.9739397 7.3605461 7.0638754 50.8828608 21.0140667
2.0073233 -0.4109446 0.7038556 -0.085747 -0.083531 -0.000773 6.0009761 -6.1770336 1.5740358 57.5450030 -31.0257512 9.6234914 12.8365647
2.0127976 -0.3710552 0.7870447 -0.074875 -0.086594 -0.001130 7.7615298 -6.7658822 4.0180447 58.5720165 -26.8395586 19.3581173 12.3720368
1.9976764 -0.3255868 0.8663920 -0.062280 -0.085592 -0.000799 7.6338869 -5.6125489 6.0130049 56.7539955 -21.9680279 28.3261729 12.5469190
1.9633339 -0.2766076 0.9380388 -0.048775 -0.080747 -0.000102 6.0157142 -3.6428768 6.5876051 52.5911499 -16.7116665 35.9859963 12.9722757
1.9122301 -0.2264526 0.9992448 -0.034973 -0.072160 0.000760 3.7086320 -1.7398811 5.4496891 46.6970557 -11.5369985 41.9076982 13.9080306
1.8474112 -0.1772257 1.0486557 -0.021696 -0.060978 0.001449 1.7148797 -0.5299070 3.3536834 39.9511426 -6.6266842 46.0746200 14.8860820
1.7719002 -0.1305069 1.0861659 -0.009146 -0.047980 0.001655 0.3856196 -0.0381464 1.0144091 32.9926156 -2.2681837 48.6793717 16.1535204
1.6882467 -0.0873023 1.1125500 0.002079 -0.034483 0.001392 -0.2288945 -0.0480132 -0.8343870 26.4073015 1.5641287 50.0464285 17.2270793
1.5982949 -0.0481520 1.1290568 0.012122 -0.021208 0.000587 -0.4030005 -0.2928020 -2.1557139 20.3860998 4.7857139 50.5341852 18.4618007
1.5031118 -0.0133005 1.1371038 0.020612 -0.008967 -0.000565 -0.3201933 -0.5681209 -2.8137450 15.1487952 7.5172823 50.4684495 19.4108990
1.4029808 0.0171229 1.1380808 0.027714 0.001867 -0.001960 -0.1675060 -0.8287055 -3.2093866 10.6007158 9.7688593 50.0428253 20.4739359
2.0675828 -0.3383001 0.7079888 -0.065925 -0.098987 -0.000391 14.9170072 -9.9518591 3.5861821 66.3412940 -23.6923723 10.3508785 11.0249581
2.0638954 -0.2928014 0.7938635 -0.052947 -0.100224 -0.000113 15.7375703 -8.3248257 7.5563385 65.8985642 -18.7823822 20.4534347 10.9091156
2.0380291 -0.2436269 0.8739769 -0.038906 -0.096612 0.000629 13.3345354 -5.3065879 9.8486495 62.3416999 -13.5297664 29.5263025 11.3439386
1.9923309 -0.1932222 0.9444511 -0.024819 -0.088564 0.001655 9.0910696 -2.3710410 9.4339133 56.3225948 -8.2713730 36.8973103 12.2787879
1.9302054 -0.1438582 1.0029664 -0.011288 -0.077058 0.002412 4.8887860 -0.4996076 6.8806931 48.7963326 -3.2883190 42.3499376 13.5028111
1.8552926 -0.0972476 1.0487902 0.001127 -0.063109 0.002707 1.8738644 0.1868629 3.5501927 40.7551321 1.1100952 45.9094664 14.8780832
1.7707960 -0.0544553 1.0824033 0.012242 -0.048192 0.002356 0.2259573 0.0862461 0.5834520 32.9341355 4.9157082 47.9613661 16.2664812
1.6791295 -0.0160146 1.1050061 0.021858 -0.033258 0.001423 -0.4179610 -0.3411409 -1.5207934 25.7912770 8.0551921 48.8609047 17.6069042
1.5818284 0.0178771 1.1181027 0.030005 -0.019332 0.000052 -0.5047552 -0.7957434 -2.7627633 19.4978683 10.6742327 49.0179375 18.8250017
1.4796085 0.0471710 1.1232354 0.036605 -0.006822 -0.001592 -0.3542788 -1.1405023 -3.3354333 14.1184290 12.7886376 48.7340705 19.9372744
2.1106071 -0.2534526 0.7107966 -0.041002 -0.111491 0.000246 24.7036920 -9.0752799 5.5975478 72.7300360 -14.7034145 10.7518627 9.5872362
2.0957434 -0.2044963 0.7976567 -0.026524 -0.109855 0.001110 22.6693881 -5.3696273 10.3800392 70.4691104 -9.5221660 20.9584504 9.7972947
2.0581031 -0.1543488 0.8768043 -0.012091 -0.102951 0.002306 16.6776587 -1.6919623 11.8802096 64.9680427 -4.3148471 29.7897487 10.7728922
2.0010593 -0.1053919 0.9447071 0.001452 -0.091650 0.003345 9.8756375 0.5230444 9.9975039 57.2585035 0.5991443 36.7312883 12.0082919
1.9287012 -0.0594349 0.9996654 0.013607 -0.077258 0.003814 4.4226704 1.0842449 6.1468673 48.4527039 4.9399990 41.5782451 13.6386513
1.8448990 -0.0175781 1.0415756 0.024170 -0.061323 0.003539 1.1931865 0.6019702 2.2634271 39.6000628 8.6318863 44.5797141 15.1403653
1.7527341 0.0196683 1.0713895 0.033164 -0.045105 0.002514 -0.3001279 -0.2652697 -0.7892478 31.3550599 11.6190713 46.1390592 16.7482321
1.6543227 0.0521698 1.0905966 0.040593 -0.029697 0.000956 -0.6808071 -1.0170736 -2.5820718 24.0822880 14.0474848 46.7483822 18.0497371
1.5508729 0.0799652 1.1008439 0.046544 -0.015725 -0.000945 -0.5987766 -1.5688667 -3.5439542 17.8321160 15.9478085 46.7416897 19.4027227
2.1320360 -0.1602755 0.7118646 -0.012132 -0.118777 0.000951 30.5109298 -3.0630122 6.6872672 75.6086350 -4.9124064 10.8193340 8.8777941
2.1051295 -0.1108737 0.7978470 0.002599 -0.113666 0.002400 24.3905985 0.7899330 10.9302236 71.4328323 0.1499115 20.7905511 9.6261162
2.0560243 -0.0628435 0.8744449 0.016161 -0.103463 0.003764 15.5733331 2.8349257 10.9855031 64.2620536 4.9582753 29.1674907 10.9460172
1.9888397 -0.0180396 0.9387323 0.027953 -0.089419 0.004606 7.7125676 2.8169368 7.8282051 55.3154557 9.1971877 35.4633111 12.5884671
1.9079197 0.0224299 0.9896686 0.037939 -0.073168 0.004527 2.5551133 1.5500519 3.6101869 45.8001195 12.7213096 39.7173384 14.3082357
1.8170017 0.0580913 1.0276630 0.046057 -0.056127 0.003597 0.0050310 0.0047675 0.0098635 36.7383925 15.5034290 42.2546802 15.9934789
1.7188509 0.0888745 1.0539897 0.052618 -0.039670 0.001967 -0.8576581 -1.2583554 -2.3812299 28.5614725 17.6821701 43.5341293 17.5382019
1.6152413 0.1149008 1.0703029 0.057618 -0.024541 -0.000079 -0.8775902 -2.0558261 -3.6238936 21.5466725 19.3522685 43.9987387 18.9175143
2.1295030 -0.0645720 0.7109916 0.018266 -0.119328 0.001605 28.6872417 4.4775523 6.2335085 74.6481907 4.8570974 10.5758004 9.0800219
2.0911760 -0.0178805 0.7943587 0.031863 -0.110947 0.003339 19.8777833 5.9810202 8.9364347 68.7809226 9.4999067 20.0582352 10.1691583
2.0321814 0.0253979 0.8671793 0.043372 -0.098117 0.004623 10.6562566 5.0737242 7.6347639 60.4537924 13.5746852 27.7539496 11.8243432
1.9568973 0.0641771 0.9272060 0.052629 -0.082323 0.005000 4.0027279 2.8153363 4.1828074 50.9821217 16.8965151 33.3903027 13.5187594
1.8695128 0.0980255 0.9739503 0.059855 -0.065318 0.004392 0.3275471 0.3330683 0.4840612 41.4625686 19.4581493 37.0626762 15.3718640
1.7734225 0.1269297 1.0081850 0.065353 -0.048373 0.002877 -1.0367491 -1.5319668 -2.1681707 32.7193399 21.3767150 39.2454422 16.9262907
1.6710261 0.1510725 1.0313866 0.069400 -0.032590 0.000805 -1.2222939 -2.7011347 -3.7179659 25.0611216 22.7830355 40.3744408 18.4957014
2.1035479 0.0273539 0.7082933 0.047269 -0.113230 0.001980 20.3508234 8.5784805 4.4893578 70.1160400 14.0067999 10.0680930 10.1427328
2.0556464 0.0688976 0.7876711 0.058595 -0.102420 0.003762 11.7904761 6.9494577 5.4468210 63.1334134 17.8906809 18.8079686 11.5558990
1.9890198 0.1058642 0.8558920 0.067450 -0.088223 0.004720 4.6919371 3.7770713 3.4999500 54.3163488 21.0309664 25.6973080 13.2467718
1.9078687 0.1378710 0.9112887 0.073905 -0.072004 0.004614 0.4419799 0.4853742 0.4881481 44.9870476 23.3617929 30.6233865 14.9974679
1.8160290 0.1649427 0.9537827 0.078526 -0.055344 0.003422 -1.3222451 -2.0086806 -2.1032095 36.0486628 25.0263644 33.8810514 16.6739730
1.7165286 0.1872912 0.9844091 0.081542 -0.039401 0.001525 -1.6066288 -3.4745695 -3.7033804 28.0956805 26.2016167 35.8604327 18.2135911
2.0573192 0.1104107 0.7041533 0.072447 -0.101936 0.002048 10.2368482 7.3265105 2.3463203 62.8508825 21.8774257 9.3141513 11.8016433
2.0021770 0.1455736 0.7786095 0.081041 -0.089927 0.003529 4.2226123 3.8883084 2.0523387 55.4836119 24.7962309 17.2076058 13.1750948
1.9301018 0.1758604 0.8417029 0.087086 -0.075452 0.004062 0.1233887 0.1478177 0.0982141 46.9606581 26.9287105 23.3008467 14.8795629
1.8449494 0.2013274 0.8921914 0.090985 -0.059846 0.003443 -1.6920681 -2.6919790 -2.0279918 38.4020986 28.4189812 27.6565329 16.4334051
1.7502512 0.2221714 0.9303336 0.093313 -0.044471 0.001906 -2.0469457 -4.4565546 -3.6097830 30.4059021 29.3822358 30.5378521 18.0371455
1.9953204 0.1816975 0.6990607 0.092528 -0.087650 0.001856 2.4694753 2.6213028 0.6016039 54.1966566 28.0465195 8.4033454 13.7078389
1.9349991 0.2103956 0.7680161 0.098494 -0.075608 0.002950 -0.6966301 -0.9224266 -0.3645893 47.0729002 30.0432561 15.3803263 15.1250558
1.8590439 0.2345409 0.8255526 0.102281 -0.061865 0.002908 -2.2365505 -3.7929475 -1.9465999 39.3196329 31.4141250 20.7482807 16.6013861
1.7711447 0.2542963 0.8707760 0.104088 -0.047550 0.001860 -2.4883135 -5.5846145 -3.3243849 31.7799679 32.2416209 24.5827391 18.0614455
1.9220875 0.2404344 0.6934419 0.107466 -0.072492 0.001350 -1.7542630 -2.6112318 -0.4643626 45.3498684 32.4907650 7.4940384 15.6021049
1.8578770 0.2633852 0.7564579 0.111202 -0.061057 0.001879 -2.7839339 -5.1245338 -1.6045910 38.9531146 33.7711078 13.6430133 16.7837071
1.7788053 0.2824233 0.8078581 0.113096 -0.048537 0.001473 -2.8759200 -6.7949589 -2.8026253 32.1720638 34.6043445 18.2804574 18.2072117
1.8413930 0.2873176 0.6875481 0.117921 -0.057999 0.000910 -3.2411075 -6.6108852 -0.9504689 37.1564355 35.6226398 6.5597103 17.3932028
1.7735309 0.3056824 0.7439225 0.119993 -0.047576 0.000877 -3.1651804 -8.0309754 -2.0481528 31.4853559 36.3087670 11.8252342 18.5373203
1.7559399 0.3237910 0.6812162 0.124479 -0.044786 0.000100 -3.0974017 -8.6219405 -1.0193252 30.0521831 37.6458707 5.7951566 18.9082443
1.7249267 0.3376467 0.6212298 0.126912 -0.040148 -0.000000 -3.4424261 -10.8945493 -0.0000010 27.4566308 37.7623998 0.0009749 19.5180606
1.8087152 0.3067879 0.6212298 0.121988 -0.052556 -0.000001 -3.2389695 -7.5256385 -0.0000006 34.2410347 36.8079890 0.0003612 17.9386054
1.8911271 0.2658107 0.6212298 0.113726 -0.066445 -0.000000 -2.7099616 -4.6421296 -0.0000003 41.9979801 34.3120261 0.0003815 16.3948604
1.9684105 0.2133374 0.6212298 0.101335 -0.081623 0.000000 0.2446477 0.3039299 0.0000000 50.7047177 30.6489551 -0.0000663 14.4388703
2.0368436 0.1483048 0.6212298 0.083831 -0.096709 -0.000000 6.5982124 5.7227966 0.0000001 59.7235721 25.2970297 0.0002270 12.5540586
2.0919671 0.0706846 0.6212298 0.061056 -0.109994 0.000000 16.5834332 9.2095657 -0.0000002 68.0487574 18.2128175 -0.0000433 10.6234284
2.1289476 -0.0177308 0.6212297 0.033561 -0.119142 -0.000000 27.1142263 7.6413305 -0.0000007 74.1928641 9.5636201 0.0000331 9.2693432
2.1436374 -0.1128325 0.6212297 0.003229 -0.122078 0.000000 33.0945332 0.8762343 -0.0000011 77.0796317 -0.0373568 -0.0000502 8.5082018
2.1340030 -0.2086283 0.6212297 -0.027069 -0.118002 -0.000000 30.6872201 -7.0410618 -0.0000011 76.1193331 -9.9672472 0.0000132 8.8659377
2.1010352 -0.2987231 0.6212297 -0.054480 -0.107731 0.000001 21.6736627 -10.9638542 -0.0000006 71.3520989 -19.5416545 -0.0001724 9.9298191
2.0483898 -0.3780753 0.6212298 -0.077100 -0.093241 -0.000000 11.0704214 -9.1570829 -0.0000002 63.4424058 -27.8581525 -0.0000514 11.7075814
1.9810645 -0.4439672 0.6212298 -0.094338 -0.076880 0.000001 3.2159563 -3.9477811 0.0000000 53.8292619 -34.2378254 -0.0002480 13.5443259
1.9040693 -0.4958599 0.6212298 -0.106770 -0.060651 0.000000 -0.9355470 1.6476966 -0.0000000 44.0701118 -38.5474206 -0.0003845 15.5066415
1.8217426 -0.5346617 0.6212298 -0.115130 -0.045676 0.000002 -2.2374988 5.6430789 -0.0000003 35.0112157 -41.1363964 -0.0005914 17.0788206
1.7382998 -0.5619082 0.6212298 -0.120784 -0.032367 0.000001 -2.4636186 9.2004487 -0.0000006 27.2418460 -42.6455546 -0.0014808 18.6718621
1.6802718 -0.5724466 0.5642245 -0.121799 -0.025133 0.000492 -2.5057454 12.1807893 1.2335118 22.3184589 -41.2516693 -5.1473860 19.4641841
1.6968798 -0.5586533 0.5023472 -0.118542 -0.027734 0.000964 -1.9802105 8.5415790 1.9790459 24.2155600 -41.7578500 -11.8210340 19.0199525
1.7044704 -0.5374300 0.4382112 -0.113314 -0.029437 0.001460 -1.8648274 7.3223569 2.7694437 24.9563017 -39.9835274 -18.4069508 18.8479306
1.7011701 -0.5091200 0.3747153 -0.106608 -0.030003 0.001650 -1.6386004 6.0083291 3.2901698 25.0854406 -37.4979517 -24.9476611 18.5414168
1.6860790 -0.4744830 0.3143293 -0.097928 -0.029001 0.001535 -1.3796725 4.8541136 3.6262064 24.2303089 -34.2406555 -31.0293568 18.5652741
1.6590864 -0.4347408 0.2592621 -0.088026 -0.026373 0.001074 -1.0717318 3.7293293 3.6818208 22.6352027 -30.4963212 -36.4507081 18.5276723
1.6207548 -0.3914127 0.2112346 -0.077007 -0.022036 0.000355 -0.7968351 2.8448362 3.6549476 20.3127151 -26.4371692 -40.9549366 18.8051105
1.5721466 -0.3461171 0.1713476 -0.065534 -0.016269 -0.000450 -0.5424382 2.0890238 3.4812096 17.5970001 -22.2916588 -44.5710485 19.0146525
1.5146151 -0.3003763 0.1400557 -0.053785 -0.009377 -0.001167 -0.3426997 1.5446407 3.3656556 14.5639950 -18.2260582 -47.2230123 19.5320265
1.4496118 -0.2554852 0.1172427 -0.042410 -0.001983 -0.001626 -0.1724553 1.0841651 3.1556804 11.5632303 -14.3570107 -49.1358228 19.8821470
1.3785498 -0.2124501 0.1023620 -0.031484 0.005490 -0.001769 -0.0415923 0.7564273 3.0646171 8.6240258 -10.7714691 -50.3309088 20.5029476
1.3027433 -0.1719934 0.0945789 -0.021465 0.012488 -0.001566 0.0630412 0.4746459 2.8920101 5.9518484 -7.4939175 -51.0759159 20.9092461
1.2234479 -0.1346043 0.0928946 -0.012379 0.018645 -0.001056 0.1510471 0.2700161 2.9241065 3.5501203 -4.5348676 -51.3479014 21.5296777
1.1419760 -0.1006009 0.0962106 -0.004508 0.023709 -0.000299 0.2071767 0.0805909 2.7203599 1.5460733 -1.9018371 -51.4375019 21.8659051
1.0604664 -0.0703821 0.1032963 0.002272 0.027553 0.000527 0.4968685 -0.1399699 5.1768479 -0.1945198 0.3982222 -50.8144750 22.4642480
1.7559399 0.3237910 0.5612434 0.124473 -0.044785 -0.000102 -3.0973658 -8.6218409 1.0193119 30.0544252 37.6457605 -5.7953300 18.9095668
1.7735309 0.3056824 0.4985371 0.119994 -0.047576 -0.000876 -3.1651982 -8.0310210 2.0481630 31.4851894 36.3087852 -11.8249093 18.5365415
1.7788053 0.2824233 0.4346014 0.113093 -0.048537 -0.001475 -2.8758842 -6.7948752 2.8025895 32.1729375 34.6048959 -18.2800704 18.2091033
1.7711447 0.2542963 0.3716836 0.104089 -0.047551 -0.001860 -2.4883275 -5.5846467 3.3244030 31.7798098 32.2415234 -24.5829911 18.0604931
1.7502512 0.2221715 0.3121259 0.093311 -0.044472 -0.001907 -2.0469155 -4.4564897 3.6097294 30.4068375 29.3831897 -30.5372036 18.0391541
1.7165286 0.1872913 0.2580505 0.081543 -0.039402 -0.001524 -1.6066294 -3.4745717 3.7033817 28.0954850 26.2011822 -35.8611681 18.2127853
1.6710261 0.1510726 0.2110730 0.069397 -0.032592 -0.000807 -1.2222742 -2.7010918 3.7179057 25.0623503 22.7844188 -40.3737381 18.4981301
1.6152413 0.1149008 0.1721566 0.057616 -0.024540 0.000080 -0.8775787 -2.0557995 3.6238457 21.5470854 19.3510078 -43.9998144 18.9164461
1.5508729 0.0799652 0.1416156 0.046541 -0.015727 0.000944 -0.5987611 -1.5688266 3.5438625 17.8334082 15.9496488 -46.7412444 19.4059902
1.4796085 0.0471711 0.1192241 0.036602 -0.006818 0.001593 -0.3542706 -1.1404763 3.3353561 14.1192772 12.7852931 -48.7356611 19.9365559
1.4029808 0.0171230 0.1043787 0.027711 0.001865 0.001960 -0.1675051 -0.8287011 3.2093683 10.6028079 9.7709362 -50.0426359 20.4771572
1.3222891 -0.0098359 0.0962494 0.019975 0.009789 0.001982 -0.0171018 -0.5558496 2.9723957 7.3609159 7.0581753 -50.8859249 21.0146287
1.2385278 -0.0335598 0.0939128 0.013168 0.016830 0.001679 0.0959087 -0.3548316 2.8314346 4.4922597 4.5381641 -51.2908423 21.5229229
1.1520715 -0.0539280 0.0964585 0.007308 0.022664 0.001126 0.1541060 -0.1630099 2.2854679 1.9574502 2.3523794 -51.7939912 21.9817488
1.8413930 0.2873176 0.5549115 0.117924 -0.058000 -0.000907 -3.2411442 -6.6109604 0.9504788 37.1547969 35.6226040 -6.5609775 17.3921476
1.8578770 0.2633853 0.4860017 0.111200 -0.061056 -0.001880 -2.7839227 -5.1245136 1.6045840 38.9534735 33.7711515 -13.6423203 16.7840319
1.8590438 0.2345409 0.4169070 0.102283 -0.061863 -0.002905 -2.2365894 -3.7930139 1.9466334 39.3187599 31.4134551 -20.7491774 16.5999058
1.8449494 0.2013274 0.3502682 0.090984 -0.059846 -0.003443 -1.6920606 -2.6919675 2.0279826 38.4021370 28.4192645 -27.6559411 16.4340288
1.8160289 0.1649427 0.2886768 0.078529 -0.055341 -0.003419 -1.3222809 -2.0087353 2.1032663 36.0478168 25.0252690 -33.8817778 16.6721843
1.7734225 0.1269297 0.2342745 0.065354 -0.048374 -0.002877 -1.0367528 -1.5319726 2.1681784 32.7193186 21.3774078 -39.2446415 16.9267244
1.7188509 0.0888745 0.1884698 0.052622 -0.039667 -0.001965 -0.8576886 -1.2584005 2.3813147 28.5600112 17.6808038 -43.5347078 17.5361901
1.6543226 0.0521698 0.1518629 0.040595 -0.029699 -0.000957 -0.6808170 -1.0170886 2.5821093 24.0819538 14.0490330 -46.7474432 18.0500844
1.5818283 0.0178772 0.1243568 0.030008 -0.019330 -0.000051 -0.5047810 -0.7957844 2.7629049 19.4962704 10.6730471 -49.0179240 18.8219982
1.5031118 -0.0133004 0.1053557 0.020615 -0.008972 0.000564 -0.3202012 -0.5681352 2.8138147 15.1478238 7.5208380 -50.4674271 19.4112878
1.4195149 -0.0409687 0.0939823 0.012699 0.000700 0.000814 -0.1555334 -0.3689822 2.8398216 11.0766319 4.7236446 -51.2844598 20.1905533
1.3318227 -0.0649351 0.0892533 0.005790 0.009532 0.000698 -0.0111166 -0.1846426 2.6960688 7.4978372 2.1918314 -51.6729466 20.7082479
1.2399327 -0.0850123 0.0902359 0.000181 0.017177 0.000283 0.1014665 -0.0398060 2.5847805 4.2654537 -0.0004201 -51.8076367 21.4461213
1.9220875 0.2404344 0.5490177 0.107464 -0.072492 -0.001351 -1.7542209 -2.6111693 0.4643512 45.3509876 32.4907348 -7.4939740 15.6031485
1.9349991 0.2103956 0.4744435 0.098496 -0.075609 -0.002949 -0.6966410 -0.9224411 0.3645950 47.0726165 30.0434573 -15.3802803 15.1248334
1.9301018 0.1758604 0.4007566 0.087084 -0.075453 -0.004063 0.1234328 0.1478706 -0.0982492 46.9614916 26.9290712 -23.3005908 14.8809054
1.9078687 0.1378711 0.3311708 0.073906 -0.072005 -0.004614 0.4419736 0.4853674 -0.4881412 44.9870740 23.3618007 -30.6234577 14.9969733
1.8695127 0.0980255 0.2685093 0.059852 -0.065319 -0.004393 0.3275900 0.3331120 -0.4841247 41.4633815 19.4588428 -37.0625228 15.3736920
1.8170017 0.0580914 0.2147965 0.046056 -0.056127 -0.003596 0.0050350 0.0047714 -0.0098714 36.7386512 15.5029862 -42.2549682 15.9930747
1.7527341 0.0196683 0.1710700 0.033160 -0.045106 -0.002515 -0.3000882 -0.2652347 0.7891433 31.3566253 11.6197637 -46.1389808 16.7502809
1.6791295 -0.0160145 0.1374534 0.021857 -0.033257 -0.001422 -0.4179514 -0.3411332 1.5207588 25.7914765 8.0538045 -48.8614314 17.6070390
1.5982948 -0.0481520 0.1134027 0.012118 -0.021207 -0.000587 -0.4029692 -0.2927794 2.1555465 20.3880738 4.7854970 -50.5345510 18.4645635
1.5118152 -0.0762992 0.0979816 0.003978 -0.009687 -0.000141 -0.2814305 -0.1585947 2.5003006 15.3949391 1.9297977 -51.4312778 19.3037800
1.4206136 -0.1002419 0.0901072 -0.002713 0.001030 -0.000107 -0.1321867 -0.0073336 2.6941229 10.8933847 -0.5994431 -51.7657867 20.1132115
1.3247942 -0.1198090 0.0887177 -0.008166 0.010482 -0.000446 0.0145173 0.1337787 2.7367569 6.9677682 -2.7301003 -51.7153754 20.8401025
1.9953204 0.1816975 0.5433988 0.092530 -0.087650 -0.001855 2.4694301 2.6212550 -0.6015928 54.1958769 28.0464370 -8.4036304 13.7068701
2.0021770 0.1455736 0.4638500 0.081040 -0.089926 -0.003530 4.2226146 3.8883108 -2.0523398 55.4837928 24.7960881 -17.2074068 13.1751668
1.9890197 0.1058642 0.3865675 0.067452 -0.088222 -0.004718 4.6918835 3.7770287 -3.4999101 54.3154805 21.0306160 -25.6977132 13.2456680
1.9568973 0.0641772 0.3152535 0.052629 -0.082322 -0.005000 4.0027277 2.8153367 -4.1828074 50.9821345 16.8965584 -33.3900982 13.5189166
1.9079197 0.0224299 0.2527909 0.037941 -0.073167 -0.004526 2.5550587 1.5500192 -3.6101099 45.7991562 12.7207397 -39.7174517 14.3065929
1.8448990 -0.0175781 0.2008839 0.024172 -0.061324 -0.003538 1.1931797 0.6019670 -2.2634144 39.5996133 8.6325329 -44.5795829 15.1405653
1.7707960 -0.0544553 0.1600562 0.012246 -0.048191 -0.002356 0.2259071 0.0862270 -0.5833224 32.9326339 4.9153449 -47.9612244 16.2642943
1.6882467 -0.0873023 0.1299095 0.002080 -0.034486 -0.001392 -0.2289021 -0.0480148 0.8344152 26.4070538 1.5661115 -50.0462347 17.2266244
1.5992720 -0.1156454 0.1094869 -0.006053 -0.021148 -0.000769 -0.3441448 0.0274043 1.9042545 20.2788413 -1.3022429 -51.1377311 18.3652521
1.5051528 -0.1392871 0.0975859 -0.012675 -0.008628 -0.000639 -0.2499395 0.1802008 2.4525086 14.8504272 -3.7577278 -51.5296054 19.2168446
1.4063915 -0.1581298 0.0929888 -0.017686 0.002632 -0.000924 -0.0981428 0.3444894 2.8036892 10.0512400 -5.7879866 -51.4299033 20.2100257
2.0573191 0.1104107 0.5383062 0.072446 -0.101936 -0.002048 10.2369005 7.3265483 -2.3463323 62.8514636 21.8775075 -9.3143221 11.8026100
2.0556464 0.0688976 0.4547884 0.058596 -0.102421 -0.003762 11.7904704 6.9494550 -5.4468187 63.1333992 17.8908863 -18.8077944 11.5558235
2.0321814 0.0253979 0.3752802 0.043370 -0.098117 -0.004625 10.6563112 5.0737509 -7.6348036 60.4545838 13.5748254 -27.7538350 11.8254284
1.9888397 -0.0180395 0.3037272 0.027953 -0.089420 -0.004606 7.7125693 2.8169380 -7.8282074 55.3154612 9.1973345 -35.4633755 12.5885064
1.9287012 -0.0594349 0.2427941 0.013604 -0.077258 -0.003815 4.4227250 1.0842586 -6.1469438 48.4538592 4.9400303 -41.5782114 13.6401674
1.8552926 -0.0972476 0.1936693 0.001126 -0.063109 -0.002707 1.8738754 0.1868641 -3.5502139 40.7555814 1.1096513 -45.9094210 14.8781985
1.7719002 -0.1305069 0.1562936 -0.009149 -0.047978 -0.001656 0.3856671 -0.0381511 -1.0145341 32.9940111 -2.2688487 -48.6795400 16.1558483
1.6811416 -0.1587397 0.1297872 -0.017328 -0.033052 -0.000973 -0.2376703 0.0974022 0.9086013 25.7105402 -5.0672458 -50.1590680 17.3889395