# volRat = 0.650000
# viscRat = 5.000000
# alpha = 0.750000
# shRate = 2.598000
# tnum = 2600
# time = 2.524028
VARIABLES = X, Y, Z, U, V, W, F_B0, F_B1, F_B2, F_0, F_1, F_2, T
ZONE N=2562 E=5120 F=FEPOINT ET=TRIANGLE
1.6482013 0.3591050 0.6212299 0.128687 -0.032619 -0.000007 3.6532834 14.7966909 0.0000024 24.9593470 49.9406923 0.0042971 20.5307831
-1.6683440 0.5767555 0.6212299 0.123915 0.023921 -0.000004 -2.9569995 15.1386965 0.0000030 -23.4489324 53.5518127 0.0023609 19.6393718
1.6683440 -0.5767554 0.6212299 -0.123917 -0.023924 -0.000001 2.9568448 -15.1379150 0.0000030 23.4513074 -53.5484750 0.0004761 19.6311697
-1.6482013 -0.3591049 0.6212299 -0.128656 0.032611 0.000001 -3.6532581 -14.7965933 0.0000025 -24.9720595 -49.9369252 -0.0004446 20.5309708
0.9887067 -0.0211267 1.1284238 0.011939 0.029978 -0.002519 -1.7240581 2.0053887 16.4320379 -2.0839116 5.4725389 58.4681000 22.7557900
0.9887067 -0.0211267 0.1140360 0.011958 0.029977 0.002431 -1.7080406 1.9867446 -16.2794016 -2.0838844 5.4547834 -58.3179530 22.7500249
-0.9887067 0.0211267 1.1284235 -0.012005 -0.029905 -0.003012 1.7893488 -2.0812813 17.0543415 2.1562013 -5.5456314 59.0764649 22.7474232
-0.9887067 0.0211267 0.1140361 -0.011969 -0.029961 0.002689 1.7338415 -2.0167603 -16.5253315 2.1013276 -5.4728388 -58.5605432 22.7592267
-0.0353017 0.3428913 0.8363462 0.073413 0.000198 0.005966 -8.5770882 -93.2486486 -53.6532228 -3.8699869 -39.5827655 -18.3668594 25.7187862
0.0353022 -0.3428863 0.8363433 -0.072556 0.008880 0.001090 6.5466863 71.1690887 -40.9519278 1.8423077 17.8051251 -6.3071497 25.6418865
-0.0353020 0.3428880 0.4061155 0.072764 -0.006204 -0.002548 -6.9361869 -75.4092892 43.3943256 -2.2006112 -21.9502980 8.6218662 25.6267224
0.0353020 -0.3428873 0.4061158 -0.072773 0.006823 -0.002256 6.9934901 76.0255137 43.7454913 2.3122214 22.5628411 9.0199692 25.6404917
1.6709560 0.3519345 0.6706185 0.128849 -0.035167 -0.000083 -3.5453602 -13.2727095 -1.1502154 23.6663004 37.5942323 4.1658240 20.3638847
1.6877458 0.3396835 0.7247480 0.126113 -0.037166 -0.000063 -2.7749240 -9.5974437 -1.9040629 25.4630493 38.5116467 9.7454127 19.9248884
1.6957576 0.3226290 0.7816163 0.121539 -0.038080 0.000035 -2.6441091 -8.6023859 -2.7729158 26.0532225 37.2906978 15.2674800 19.7730440
1.6931495 0.3011278 0.8389025 0.114795 -0.037517 0.000092 -2.3783283 -7.4316291 -3.4339769 26.1299825 35.7088791 20.9541190 19.4793565
1.6790061 0.2757318 0.8945655 0.106652 -0.035464 -0.000056 -2.0948832 -6.4406495 -3.9937933 25.2860709 33.5228649 26.4028780 19.5135078
1.6531511 0.2472656 0.9466762 0.097095 -0.031724 -0.000507 -1.7254885 -5.3695111 -4.2935838 23.7736554 30.9730269 31.5137213 19.4494365
1.6160539 0.2167385 0.9936138 0.086922 -0.026565 -0.001196 -1.3438978 -4.3813624 -4.4027564 21.5657634 28.2067708 36.0631088 19.7042911
1.5686881 0.1852178 1.0342032 0.076341 -0.020103 -0.002100 -0.9723403 -3.4731372 -4.3127805 18.9341701 25.2577003 39.9868316 19.8527083
1.5123492 0.1536970 1.0677790 0.066113 -0.012901 -0.003011 -0.6571798 -2.7426894 -4.1655489 15.9352972 22.2978131 43.1506672 20.2910412
1.4484755 0.1230024 1.0941607 0.056242 -0.005188 -0.003866 -0.3895637 -2.1169055 -3.9139084 12.8972370 19.3281763 45.6717561 20.5536462
1.3785078 0.0937478 1.1135615 0.047216 0.002453 -0.004466 -0.1806210 -1.6294288 -3.6701604 9.8532427 16.5121320 47.5832845 21.0794346
1.3038182 0.0663390 1.1264793 0.038823 0.009725 -0.004782 -0.0198374 -1.2245524 -3.3833969 7.0276726 13.7890623 49.0049088 21.3723934
1.2257350 0.0410136 1.1335928 0.031274 0.016289 -0.004713 0.1021378 -0.9539963 -3.2813120 4.3997741 11.2235078 49.9188895 21.8922852
1.1456464 0.0178918 1.1357023 0.024267 0.021977 -0.004418 0.1964342 -0.7186023 -3.1561969 2.1541389 8.7733506 50.5962743 22.1447200
1.0657285 -0.0028533 1.1337060 0.018020 0.026485 -0.003496 0.5246635 -1.0069825 -5.9469282 0.1820482 6.3195525 49.7577257 22.6250281
1.7785532 -0.5451936 0.6892544 -0.116595 -0.039128 -0.001128 -2.3350848 6.9891203 -0.9579738 31.0501100 -41.7116107 7.1157164 18.0227912
1.7949095 -0.5244380 0.7594491 -0.111378 -0.042446 -0.001689 -2.1770634 5.7865562 -1.7171033 32.8693487 -40.2808859 14.5196775 17.6413021
1.7985260 -0.4958403 0.8298466 -0.104291 -0.044293 -0.002247 -1.8309899 4.4223186 -2.1402858 33.5750773 -37.6191614 22.1399425 17.3154125
1.7888672 -0.4598836 0.8977090 -0.095169 -0.044271 -0.002428 -1.4298072 3.1945666 -2.2655436 33.0134966 -34.1039890 29.3186404 17.2038206
1.7658001 -0.4178046 0.9603521 -0.084542 -0.042220 -0.002171 -1.0866703 2.2811142 -2.2561171 31.3258643 -29.8581224 35.7288146 17.2212165
1.7299390 -0.3713301 1.0155236 -0.072542 -0.037979 -0.001611 -0.8115972 1.6232874 -2.1940361 28.6463575 -25.2674716 41.1021577 17.4665128
1.6825318 -0.3223957 1.0616969 -0.059910 -0.031813 -0.000909 -0.6298882 1.2156654 -2.2462756 25.2506570 -20.4792937 45.3013013 17.8522323
1.6252120 -0.2728719 1.0981703 -0.047103 -0.024086 -0.000268 -0.4818559 0.9074713 -2.3415326 21.4664954 -15.8328990 48.3279414 18.3711165
1.5597272 -0.2243644 1.1249865 -0.034640 -0.015456 0.000098 -0.3577949 0.6638474 -2.5166988 17.5858899 -11.4139368 50.3254431 18.9704587
1.4877296 -0.1781216 1.1427569 -0.022809 -0.006479 0.000102 -0.2287981 0.4212522 -2.6179825 13.8115403 -7.4079878 51.4878442 19.6316044
1.4106506 -0.1350284 1.1524526 -0.012059 0.002106 -0.000282 -0.1090382 0.1993201 -2.7144856 10.3432944 -3.7613323 52.0268479 20.2796659
1.3296439 -0.0956562 1.1552337 -0.002462 0.009949 -0.000975 0.0009393 -0.0057412 -2.7023854 7.2229109 -0.5717853 52.1282497 20.9205610
1.2455264 -0.0603293 1.1523089 0.005818 0.016664 -0.001874 0.0895230 -0.1747382 -2.5764549 4.4846386 2.2331332 52.0628555 21.5430876
1.1584702 -0.0292710 1.1448449 0.012721 0.022156 -0.002821 0.1511751 -0.2963669 -2.3762792 2.1450932 4.6338767 51.7905932 22.0830225
1.8626084 -0.5105738 0.6954410 -0.109060 -0.053392 -0.000955 -1.8015711 3.7115571 -0.6165073 39.6340630 -39.9113864 8.0480614 16.4763507
1.8776441 -0.4831013 0.7713367 -0.102295 -0.057337 -0.001929 -1.0908752 1.9826717 -0.7209865 41.5977147 -37.3360085 16.5538065 15.8847872
1.8768207 -0.4479987 0.8459622 -0.093161 -0.058799 -0.002295 -0.4721899 0.7708743 -0.4652704 41.8251565 -33.8649838 24.7782209 15.7252050
1.8603585 -0.4061630 0.9162399 -0.082413 -0.057921 -0.002273 -0.0586038 0.0868717 -0.0787421 40.4949966 -29.4845851 32.3609748 15.6194082
1.8289618 -0.3592815 0.9793666 -0.069937 -0.054205 -0.001858 0.0389344 -0.0526565 0.0688867 37.6159335 -24.6521790 38.8224052 15.9544394
1.7840572 -0.3094308 1.0332530 -0.056921 -0.048072 -0.001125 -0.0575333 0.0707652 -0.1329457 33.7147578 -19.5465161 43.9075806 16.3136243
1.7275859 -0.2586914 1.0767625 -0.043515 -0.039725 -0.000426 -0.2402281 0.2641644 -0.7322946 29.0807763 -14.5651432 47.5591374 17.0432136
1.6616616 -0.2088670 1.1096926 -0.030504 -0.030028 0.000020 -0.3243293 0.3039999 -1.3407981 24.2916300 -9.8716139 50.0061348 17.6965112
1.5882614 -0.1613443 1.1325680 -0.018119 -0.019635 0.000052 -0.3369929 0.2340666 -1.9897978 19.5479612 -5.6074553 51.3761316 18.5912707
1.5090233 -0.1170851 1.1463855 -0.006938 -0.009402 -0.000330 -0.2557057 0.0619425 -2.3773168 15.1885490 -1.7890143 51.9897965 19.2942191
1.4251220 -0.0766916 1.1523706 0.003166 0.000263 -0.001109 -0.1463632 -0.1404640 -2.6778692 11.1952627 1.5005837 52.0450031 20.2015324
1.3371336 -0.0405129 1.1518064 0.011655 0.008744 -0.002127 -0.0253929 -0.3266537 -2.7109658 7.7715186 4.3923826 51.7849157 20.8117935
1.2447048 -0.0088129 1.1459013 0.018874 0.016022 -0.003278 0.0832026 -0.5089332 -2.8397193 4.7247702 6.8080120 51.2709890 21.6379613
1.9417234 -0.4639716 0.7007701 -0.098290 -0.069201 -0.001090 0.8713539 -1.2536286 0.2569748 49.1364391 -36.2646986 9.0640575 14.6752506
1.9527979 -0.4296088 0.7813889 -0.089333 -0.072949 -0.001647 2.2038996 -2.7562480 1.2675472 50.8125108 -32.8395700 18.3117074 14.2318308
1.9454561 -0.3881506 0.8592691 -0.078250 -0.073644 -0.001893 2.8846519 -3.1628127 2.4957439 50.2381885 -28.4107721 27.1779175 14.0685560
1.9204786 -0.3411263 0.9308671 -0.065567 -0.070929 -0.001498 2.7249391 -2.6131685 3.2405171 47.5759995 -23.4161686 34.9060806 14.2926407
1.8794591 -0.2906766 0.9933419 -0.052050 -0.065111 -0.000800 1.9170744 -1.5802806 3.0232702 43.2335779 -18.0424060 41.1590435 14.8017373
1.8246908 -0.2390696 1.0449373 -0.038186 -0.056425 -0.000064 0.9684373 -0.6557251 2.0066526 37.8218963 -12.7986650 45.7725452 15.5783451
1.7587514 -0.1883056 1.0850529 -0.024681 -0.045809 0.000417 0.2155457 -0.1068159 0.5920080 31.9739282 -7.8336254 48.8748217 16.4764403
1.6840765 -0.1399155 1.1140440 -0.011963 -0.034024 0.000479 -0.2084524 0.0504374 -0.7790212 26.1374849 -3.3788628 50.6430935 17.4669765
1.6026596 -0.0949370 1.1328947 -0.000374 -0.022088 0.000041 -0.3471786 -0.0567245 -1.8558059 20.6558886 0.5635987 51.4426723 18.4614602
1.5158898 -0.0540048 1.1429121 0.009851 -0.010653 -0.000833 -0.2990378 -0.2799500 -2.5137012 15.7387422 3.9460154 51.5524851 19.4098363
1.4244439 -0.0174891 1.1454908 0.018646 -0.000330 -0.002023 -0.1761538 -0.5235684 -2.8932265 11.3851354 6.8612239 51.2311057 20.3145832
1.3281388 0.0143303 1.1419755 0.025822 0.008739 -0.003380 -0.0342938 -0.7369391 -3.0597473 7.6386282 9.2624302 50.6604124 21.1411942
2.0126269 -0.4041078 0.7053941 -0.083091 -0.085460 -0.000812 6.6887957 -6.6107788 1.7544958 58.7820632 -30.7616874 9.9212076 12.8204570
2.0170839 -0.3631624 0.7895781 -0.071847 -0.088372 -0.001155 8.3967933 -6.9906710 4.3434379 59.6415715 -26.3862646 19.8640157 12.3788301
2.0010175 -0.3163027 0.8693182 -0.058813 -0.087163 -0.000823 8.1672116 -5.6668722 6.4181958 57.6865132 -21.3205005 28.9630868 12.5771173
1.9659382 -0.2656636 0.9407849 -0.044859 -0.082133 -0.000134 6.3876005 -3.5634819 6.9627052 53.3558105 -15.8285446 36.6471223 13.0242936
1.9143961 -0.2136536 1.0013275 -0.030623 -0.073382 0.000695 3.9326613 -1.6131378 5.7338806 47.3179037 -10.4180066 42.5079329 13.9792454
1.8494730 -0.1624546 1.0497068 -0.016892 -0.062075 0.001281 1.8404741 -0.4274692 3.5556037 40.4823869 -5.2868550 46.5746312 14.9723716
1.7741834 -0.1137340 1.0859312 -0.003987 -0.049004 0.001348 0.4230629 0.0020589 1.0927974 33.4313747 -0.7248562 48.9960831 16.2525249
1.6910413 -0.0685986 1.1108830 0.007567 -0.035499 0.000880 -0.2333070 -0.0827183 -0.8280572 26.7994461 3.2872226 50.1898556 17.3366353
1.6018376 -0.0277003 1.1259127 0.017842 -0.022285 -0.000158 -0.4287874 -0.4006906 -2.2049345 20.7474379 6.6640840 50.4986762 18.5834940
1.5075681 0.0085984 1.1325407 0.026455 -0.010115 -0.001550 -0.3505831 -0.7288621 -2.8965561 15.4840235 9.5184498 50.2622425 19.5397296
1.4084205 0.0400478 1.1322635 0.033523 0.000635 -0.003162 -0.1944964 -1.0319029 -3.3115006 10.9119861 11.8618967 49.6763941 20.6136339
2.0709807 -0.3308323 0.7090179 -0.062788 -0.100622 -0.000398 15.6783171 -9.9966900 3.7657894 67.4191062 -23.2550932 10.5874382 11.0564557
2.0663312 -0.2844852 0.7953187 -0.049492 -0.101645 -0.000136 16.3568157 -8.1712263 7.8352818 66.8461959 -18.2065904 20.8548032 10.9675736
2.0397135 -0.2341437 0.8752665 -0.035126 -0.097842 0.000625 13.7183736 -5.0128571 10.0871523 63.0882075 -12.7523923 29.9744487 11.4279517
1.9935889 -0.1822963 0.9450764 -0.020705 -0.089642 0.001654 9.3070548 -2.0622442 9.5873972 56.9327542 -7.2964833 37.3055660 12.3827925
1.9314047 -0.1312658 1.0025551 -0.006810 -0.078036 0.002344 4.9865063 -0.2588429 6.9400708 49.2902455 -2.1100836 42.6536612 13.6178927
1.8567849 -0.0828357 1.0470939 0.005929 -0.064058 0.002537 1.8966403 0.3164635 3.5352312 41.1878503 2.4769381 46.0556097 15.0022842
1.7728830 -0.0381641 1.0792804 0.017382 -0.049208 0.002014 0.2086481 0.0988455 0.5264359 33.3228676 6.4689956 47.9473042 16.3989016
1.6820476 0.0021005 1.1004116 0.027245 -0.034352 0.000878 -0.4571257 -0.4318474 -1.6099686 26.1623881 9.7570247 48.6731950 17.7430341
1.5857381 0.0376310 1.1120873 0.035578 -0.020563 -0.000711 -0.5499928 -0.9663634 -2.8729129 19.8452404 12.5159233 48.6601142 18.9703000
1.4845808 0.0682418 1.1159521 0.042222 -0.008178 -0.002561 -0.3942874 -1.3633200 -3.4538686 14.4461782 14.7380636 48.2201839 20.0895309
2.1119972 -0.2458773 0.7112269 -0.037590 -0.112637 0.000246 25.1729697 -8.6845214 5.6864152 73.5707203 -14.1517362 10.9210669 9.6819440
2.0963615 -0.1963464 0.7979067 -0.022938 -0.110781 0.001125 22.8951462 -4.8918010 10.4306098 71.1553327 -8.8458799 21.2059592 9.9255240
2.0583055 -0.1452748 0.8763539 -0.008295 -0.103744 0.002314 16.7498380 -1.2501167 11.8397660 65.5238120 -3.4814541 30.0285093 10.9156569
2.0012562 -0.0950633 0.9431770 0.005514 -0.092407 0.003301 9.8764304 0.8547093 9.8865466 57.7118137 1.6096348 36.8844977 12.1603304
1.9292795 -0.0475707 0.9968143 0.017942 -0.078052 0.003701 4.3906272 1.2706463 6.0067194 48.8470877 6.1198076 41.5857006 13.7914796
1.8461780 -0.0039829 1.0372748 0.028812 -0.062211 0.003294 1.1454151 0.6466120 2.1261869 39.9652745 9.9752979 44.4299612 15.2903866
1.7549519 0.0350729 1.0656021 0.038072 -0.046146 0.002114 -0.3596277 -0.3475419 -0.9182637 31.7141007 13.1124936 45.8229648 16.8989005
1.6576337 0.0693237 1.0833718 0.045728 -0.030924 0.000375 -0.7421623 -1.1928857 -2.7040658 24.4305573 15.6858277 46.2708485 18.2037354
1.5553461 0.0986591 1.0923237 0.051777 -0.017111 -0.001714 -0.6546216 -1.8128221 -3.6622799 18.1753133 17.6948415 46.1147287 19.5579195
2.1315808 -0.1532304 0.7116599 -0.008768 -0.119343 0.000952 30.4310398 -2.5179873 6.6281970 76.2100798 -4.3040100 10.9173592 9.0476817
2.1042441 -0.1035083 0.7968822 0.006006 -0.114104 0.002385 24.1835158 1.2418143 10.7427924 71.9120811 0.8653103 20.9011323 9.8115302
2.0551667 -0.0547275 0.8723177 0.019688 -0.103895 0.003716 15.3798258 3.1489713 10.7191809 64.6508839 5.8045190 29.2049473 11.1360808
1.9884434 -0.0087653 0.9352004 0.031677 -0.089952 0.004508 7.5779120 2.9893029 7.5678006 55.6591627 10.1824797 35.3653384 12.7671376
1.9083348 0.0331951 0.9846175 0.041946 -0.073888 0.004326 2.4729286 1.5970007 3.4196551 46.1457056 13.8617753 39.4821985 14.4811470
1.8184772 0.0705613 1.0210713 0.050319 -0.057067 0.003301 -0.0759730 -0.0760368 -0.1447906 37.0798847 16.7806743 41.8365892 16.1584628
1.7215403 0.1031171 1.0459149 0.057146 -0.040836 0.001522 -0.9337326 -1.4371087 -2.4978971 28.9068919 19.0991083 42.9651997 17.7001025
1.6192108 0.1308253 1.0608826 0.062319 -0.025936 -0.000660 -0.9463681 -2.3049020 -3.7196002 21.8965364 20.8921287 43.2819019 19.0779674
2.1276856 -0.0586318 0.7101814 0.021244 -0.119428 0.001590 28.1879503 4.8000942 6.0616923 75.0463332 5.4963350 10.6003798 9.3034653
2.0893676 -0.0117645 0.7922872 0.034794 -0.111060 0.003288 19.4631298 6.1604116 8.6330301 69.0996023 10.2158462 20.0254162 10.3890332
2.0308676 0.0322127 0.8635789 0.046403 -0.098381 0.004510 10.3996060 5.1505371 7.3226838 60.7379993 14.3872997 27.6018483 12.0293832
1.9564747 0.0721553 0.9219636 0.055870 -0.082832 0.004817 3.8585330 2.8101932 3.9433746 51.2704140 17.8229076 33.0834642 13.7069324
1.8702603 0.1075140 0.9670617 0.063363 -0.066105 0.004138 0.2302857 0.2418414 0.3307953 41.7784202 20.5046704 36.5947322 15.5412482
1.7755065 0.1381233 0.9997244 0.069157 -0.049455 0.002525 -1.1195594 -1.7037444 -2.2581683 33.0579392 22.5566403 38.6289609 17.0875355
1.6745174 0.1639992 1.0214977 0.073424 -0.033934 0.000359 -1.3046205 -2.9552684 -3.7886883 25.4096104 24.0753710 39.5988408 18.6539962
2.1010824 0.0318613 0.7069612 0.049642 -0.113128 0.001934 19.8171804 8.5748810 4.3044868 70.3672158 14.6329024 10.0230047 10.3799958
2.0536283 0.0735778 0.7846795 0.060911 -0.102463 0.003658 11.4570478 6.8936621 5.1925229 63.3656268 18.5533253 18.6488695 11.7746041
1.9879008 0.1112977 0.8510996 0.069892 -0.088544 0.004547 4.5251242 3.7107354 3.2964554 54.5714209 21.7716303 25.3907113 13.4417313
1.9079797 0.1445303 0.9046937 0.076586 -0.072652 0.004393 0.3498380 0.3909220 0.3751910 45.2862462 24.1989027 30.1533913 15.1697886
1.8175735 0.1731444 0.9454775 0.081520 -0.056341 0.003139 -1.3981084 -2.1581627 -2.1442361 36.3822023 25.9842859 33.2580674 16.8371507
1.7195988 0.1971795 0.9745539 0.084811 -0.040695 0.001184 -1.6822692 -3.6863568 -3.7055276 28.4579275 27.2752500 35.0944744 18.3622737
2.0549619 0.1134709 0.7024079 0.074171 -0.101911 0.001978 9.9543066 7.2007480 2.2329586 63.0786001 22.4515395 9.2086930 12.0198726
2.0006267 0.1489055 0.7749094 0.082761 -0.090159 0.003385 4.0784128 3.7877941 1.9317763 55.7095158 25.3903112 16.9575827 13.3681723
1.9297552 0.1800448 0.8360167 0.088986 -0.076018 0.003864 0.0598715 0.0722608 0.0461967 47.2458273 27.5870747 22.8849330 15.0486001
1.8460750 0.2067950 0.8846162 0.093167 -0.060761 0.003194 -1.7423124 -2.7892430 -2.0110048 38.7370498 29.1717268 27.0884808 16.5800894
1.7529895 0.2291771 0.9210496 0.095790 -0.045714 0.001640 -2.1109911 -4.6144089 -3.5558974 30.7782271 30.2372530 29.8154949 18.1726551
1.9937062 0.1835353 0.6970091 0.093693 -0.087907 0.001776 2.3873780 2.5406020 0.5652277 54.4210630 28.5333566 8.2556040 13.8917705
1.9344539 0.2126365 0.7638092 0.099708 -0.076147 0.002800 -0.7161501 -0.9490572 -0.3624649 47.3626274 30.5556996 15.0656552 15.2775510
1.8599219 0.2377147 0.8192614 0.103720 -0.062757 0.002725 -2.2549198 -3.8211930 -1.8863973 39.6611061 32.0024754 20.2654481 16.7401929
1.7736667 0.2587599 0.8625924 0.105815 -0.048767 0.001665 -2.5306739 -5.6622946 -3.2251297 32.1648573 32.9168400 23.9444890 18.1841122
1.9216678 0.2413823 0.6911795 0.108225 -0.073117 0.001272 -1.7328538 -2.5702294 -0.4422438 45.6451722 32.9165505 7.3212773 15.7435791
1.8587206 0.2648424 0.7519328 0.112079 -0.061976 0.001746 -2.7763846 -5.0816313 -1.5341850 39.2961873 34.2313957 13.2965632 16.9058468
1.7812453 0.2848352 0.8012515 0.114188 -0.049744 0.001323 -2.8971289 -6.7880450 -2.6877066 32.5698426 35.1315506 17.7732816 18.3080535
1.8424591 0.2877054 0.6851630 0.118398 -0.058984 0.000853 -3.2101181 -6.4877222 -0.8996035 37.5268394 36.0230078 6.3759044 17.4985923
1.7760366 0.3066292 0.7392804 0.120598 -0.048807 0.000798 -3.1928963 -8.0026425 -1.9618143 31.8749535 36.6839738 11.4516469 18.6251028
1.7586860 0.3238898 0.6788115 0.124824 -0.046081 0.000058 -3.0783319 -8.4397035 -0.9590014 30.4799042 38.0770796 5.6171803 18.9883359
1.7282029 0.3374679 0.6212299 0.127082 -0.041530 0.000003 -3.4902132 -10.8472806 0.0000002 27.8461085 37.9862363 0.0005476 19.5787491
1.8103494 0.3067499 0.6212299 0.122323 -0.053673 -0.000006 -3.2167054 -7.3848702 0.0000001 34.6003502 37.1489307 0.0022337 18.0312415
1.8912189 0.2661567 0.6212299 0.114229 -0.067207 0.000002 -2.6732726 -4.5492858 0.0000001 42.3246904 34.6911055 0.0002521 16.5169791
1.9671638 0.2143810 0.6212299 0.102174 -0.082016 -0.000001 0.2354498 0.2921758 -0.0000000 50.9587508 31.0846031 0.0002837 14.5997805
2.0346117 0.1503998 0.6212299 0.085144 -0.096742 0.000001 6.3986321 5.5795701 -0.0000001 59.9193522 25.7890301 0.0001437 12.7560181
2.0892954 0.0741392 0.6212299 0.062998 -0.109841 -0.000001 16.1063254 9.0840787 -0.0000003 68.2542848 18.7876306 0.0003083 10.8597355
2.1265576 -0.0127844 0.6212299 0.036168 -0.119044 0.000002 26.4874341 7.7758914 -0.0000005 74.5088588 10.1750903 -0.0003155 9.5089554
2.1423059 -0.1065581 0.6212299 0.006369 -0.122352 -0.000001 32.7122942 1.3509167 -0.0000005 77.5804507 0.5649540 0.0003262 8.7126673
2.1343625 -0.2014967 0.6212299 -0.023687 -0.118820 0.000001 30.8805966 -6.5081723 -0.0000005 76.8476890 -9.4178961 -0.0002928 9.0044284
2.1034138 -0.2913716 0.6212299 -0.051218 -0.109136 -0.000000 22.3647616 -10.7694347 -0.0000004 72.3361658 -19.0688318 0.0001312 9.9935633
2.0527975 -0.3711041 0.6212299 -0.074219 -0.095053 0.000001 11.8728004 -9.4277492 -0.0000003 64.6340611 -27.5332250 -0.0001998 11.7092139
1.9873047 -0.4378040 0.6212299 -0.091997 -0.078890 -0.000000 3.8151964 -4.5025594 -0.0000001 55.1370926 -34.1029513 0.0001448 13.5186642
1.9118671 -0.4907344 0.6212299 -0.105038 -0.062678 0.000002 -0.6573138 1.1104892 0.0000000 45.3123134 -38.5548250 -0.0005181 15.4627343
1.8308241 -0.5306530 0.6212299 -0.113871 -0.047501 -0.000001 -2.1694986 5.2207544 0.0000001 36.2072190 -41.3309650 0.0006653 17.0373180
1.7483939 -0.5589750 0.6212299 -0.119944 -0.033955 0.000003 -2.5604253 9.0363108 0.0000002 28.2690371 -42.8899836 -0.0012204 18.6422532
1.6906407 -0.5700388 0.5620591 -0.121145 -0.026450 0.000604 -2.6499606 12.0643016 1.2756658 23.1788570 -41.4056165 -5.4079438 19.4419615
1.7065131 -0.5553496 0.4980295 -0.117621 -0.029061 0.001164 -2.0285096 8.2287928 1.9902261 25.1413618 -41.9971508 -12.3975737 18.9958955
1.7131995 -0.5327594 0.4319508 -0.112001 -0.030741 0.001738 -1.8861066 6.9750355 2.7576420 25.8401224 -40.0602865 -19.2532318 18.8230881
1.7089181 -0.5026519 0.3668842 -0.104834 -0.031259 0.001991 -1.6354227 5.6385199 3.2369158 25.9064656 -37.3426117 -26.0168437 18.5167602
1.6928500 -0.4658639 0.3054008 -0.095621 -0.030166 0.001926 -1.3559351 4.4618885 3.5113857 24.9689693 -33.8332317 -32.2605482 18.5407051
1.6649587 -0.4237261 0.2497605 -0.085142 -0.027393 0.001500 -1.0395026 3.3495914 3.5102937 23.2782785 -29.8138372 -37.7610425 18.5074376
1.6258695 -0.3778858 0.2016863 -0.073522 -0.022884 0.000856 -0.7649880 2.4881512 3.4324469 20.8662821 -25.4833610 -42.2948456 18.7921959
1.5766933 -0.3300966 0.1622391 -0.061495 -0.016944 0.000165 -0.5248367 1.7942089 3.2659853 18.0558623 -21.0463546 -45.8410642 19.0127513
1.5188155 -0.2820143 0.1318005 -0.049220 -0.009877 -0.000392 -0.3349693 1.2840210 3.1366944 14.9499655 -16.7438011 -48.4221414 19.5422945
1.4537042 -0.2350565 0.1101591 -0.037456 -0.002351 -0.000655 -0.1777940 0.8762481 2.9795588 11.8829531 -12.6412676 -50.1733096 19.9073279
1.3827733 -0.1903344 0.0966611 -0.026248 0.005214 -0.000577 -0.0542041 0.5754383 2.9230559 8.8924427 -8.8739239 -51.2145293 20.5436497
1.3073218 -0.1486520 0.0903616 -0.016088 0.012264 -0.000165 0.0475266 0.3164747 2.7910221 6.1775931 -5.4535774 -51.7870960 20.9658235
1.2285707 -0.1105517 0.0901579 -0.007014 0.018445 0.000504 0.1364590 0.1179037 2.8869348 3.7436780 -2.3962575 -51.8575144 21.5979204
1.1477740 -0.0763722 0.0948620 0.000708 0.023510 0.001386 0.1892205 -0.0586102 2.6155785 1.6976908 0.3019008 -51.8911349 21.9506064
1.0669797 -0.0464918 0.1031693 0.007231 0.027425 0.002314 0.4970054 -0.4233055 5.3469365 -0.0654881 2.5694219 -50.8970689 22.5563115
1.7586860 0.3238898 0.5636483 0.124812 -0.046079 -0.000058 -3.0782481 -8.4394737 0.9589756 30.4836271 38.0770778 -5.6177227 18.9909007
1.7760366 0.3066292 0.5031793 0.120598 -0.048807 -0.000795 -3.1929405 -8.0027534 1.9618418 31.8757169 36.6832812 -11.4516066 18.6230812
1.7812453 0.2848352 0.4412082 0.114186 -0.049746 -0.001322 -2.8970539 -6.7878693 2.6876374 32.5699646 35.1328306 -17.7730902 18.3115994
1.7736667 0.2587599 0.3798673 0.105816 -0.048766 -0.001662 -2.5307105 -5.6623766 3.2251766 32.1646399 32.9160446 -23.9454744 18.1820550
1.7529895 0.2291771 0.3214101 0.095786 -0.045715 -0.001641 -2.1109395 -4.6142962 3.5558108 30.7795271 30.2387335 -29.8143299 18.1753460
1.7195988 0.1971795 0.2679058 0.084816 -0.040695 -0.001180 -1.6822784 -3.6863769 3.7055481 28.4562481 27.2740897 -35.0963526 18.3608246
1.6745173 0.1639992 0.2209621 0.073421 -0.033937 -0.000360 -1.3046038 -2.9552305 3.7886400 25.4107290 24.0780526 -39.5969994 18.6571591
1.6192108 0.1308253 0.1815772 0.062319 -0.025932 0.000664 -0.9463424 -2.3048396 3.7194996 21.8963331 20.8889221 -43.2843527 19.0751761
1.5553461 0.0986591 0.1501361 0.051778 -0.017118 0.001713 -0.6546485 -1.8128966 3.6624306 18.1749777 17.6998054 -46.1124088 19.5621546
1.4845808 0.0682418 0.1265077 0.042220 -0.008172 0.002565 -0.3942293 -1.3631191 3.4533597 14.4463285 14.7331065 -48.2229470 20.0873846
1.4084204 0.0400478 0.1101963 0.033521 0.000631 0.003162 -0.1945549 -1.0322134 3.3124969 10.9131709 11.8660649 -49.6741465 20.6159023
1.3281388 0.0143303 0.1004843 0.025821 0.008740 0.003386 -0.0342387 -0.7357548 3.0548313 7.6377476 9.2601911 -50.6663936 21.1412616
1.2447048 -0.0088129 0.0965584 0.018872 0.016026 0.003261 0.0838307 -0.5127737 2.8611464 4.7263562 6.8053440 -51.2496450 21.6402168
1.1584702 -0.0292710 0.0976149 0.012712 0.022166 0.002858 0.1480061 -0.2901551 2.3264720 2.1467569 4.6323382 -51.8415605 22.0823122
1.8424591 0.2877054 0.5572967 0.118406 -0.058985 -0.000844 -3.2101928 -6.4878731 0.8996247 37.5238407 36.0228185 -6.3796129 17.4968920
1.8587206 0.2648424 0.4905269 0.112077 -0.061977 -0.001751 -2.7763549 -5.0815770 1.5341688 39.2967796 34.2321547 -13.2935797 16.9066729
1.8599219 0.2377147 0.4231983 0.103722 -0.062754 -0.002720 -2.2549857 -3.8213048 1.8864527 39.6605867 32.0008153 -20.2673825 16.7376792
1.8460750 0.2067950 0.3578435 0.093167 -0.060764 -0.003197 -1.7422898 -2.7892068 2.0109788 38.7369154 29.1732237 -27.0865777 16.5817260
1.8175734 0.1731444 0.2969823 0.081521 -0.056337 -0.003135 -1.3981578 -2.1582389 2.1443120 36.3817984 25.9821048 -33.2595464 16.8346949
1.7755065 0.1381232 0.2427354 0.069155 -0.049458 -0.002527 -1.1195509 -1.7037315 2.2581514 33.0590128 22.5582423 -38.6271325 17.0885191
1.7215403 0.1031171 0.1965448 0.057149 -0.040832 -0.001518 -0.9337629 -1.4371553 2.4979783 28.9054896 19.0966905 -42.9665729 17.6980756
1.6576337 0.0693237 0.1590880 0.045727 -0.030928 -0.000376 -0.7421644 -1.1928891 2.7040736 24.4315258 15.6883603 -46.2692605 18.2052099
1.5857381 0.0376309 0.1303724 0.035577 -0.020556 0.000714 -0.5500071 -0.9663885 2.8729877 19.8449239 12.5117176 -48.6612380 18.9668310
1.5075681 0.0085984 0.1099191 0.026457 -0.010124 0.001550 -0.3505912 -0.7288789 2.8966228 15.4834938 9.5239081 -50.2607883 19.5420978
1.4244439 -0.0174891 0.0969690 0.018644 -0.000320 0.002025 -0.1761476 -0.5235499 2.8931247 11.3850773 6.8554690 -51.2318384 20.3113543
1.3371336 -0.0405129 0.0906534 0.011658 0.008736 0.002126 -0.0254075 -0.3268430 2.7125362 7.7707911 4.3978047 -51.7829610 20.8123194
1.2455264 -0.0603293 0.0901509 0.005815 0.016664 0.001882 0.0892836 -0.1742713 2.5695697 4.4844631 2.2340405 -52.0689968 21.5403720
1.9216678 0.2413823 0.5512803 0.108220 -0.073116 -0.001273 -1.7327769 -2.5701152 0.4422243 45.6471610 32.9164374 -7.3209006 15.7451610
1.9344539 0.2126365 0.4786506 0.099711 -0.076148 -0.002795 -0.7161786 -0.9490950 0.3624794 47.3617262 30.5556962 -15.0667728 15.2770004
1.9297552 0.1800448 0.4064430 0.088982 -0.076019 -0.003864 0.0599477 0.0723527 -0.0462554 47.2468145 27.5878707 -22.8843358 15.0506226
1.9079797 0.1445303 0.3377660 0.076587 -0.072651 -0.004390 0.3498130 0.3908940 -0.3751642 45.2860177 24.1980770 -30.1542032 15.1683263
1.8702603 0.1075140 0.2753981 0.063362 -0.066108 -0.004137 0.2303445 0.2419033 -0.3308799 41.7786574 20.5063726 -36.5943352 15.5438642
1.8184772 0.0705613 0.2213885 0.050320 -0.057066 -0.003298 -0.0759884 -0.0760523 0.1448201 37.0792232 16.7793797 -41.8374642 16.1571172
1.7549519 0.0350729 0.1768577 0.038068 -0.046148 -0.002114 -0.3595858 -0.3475014 0.9181568 31.7155361 13.1142000 -45.8224502 16.9008455
1.6820476 0.0021005 0.1420482 0.027248 -0.034351 -0.000876 -0.4571339 -0.4318552 1.6099977 26.1606744 9.7558615 -48.6739299 17.7422841
1.6018376 -0.0277003 0.1165471 0.017838 -0.022286 0.000159 -0.4287616 -0.4006665 2.2048019 20.7492514 6.6657953 -50.4984869 18.5859517
1.5158898 -0.0540048 0.0995477 0.009852 -0.010649 0.000835 -0.2990427 -0.2799547 2.5137429 15.7376252 3.9430794 -51.5529520 19.4082252
1.4251220 -0.0766916 0.0900891 0.003162 0.000257 0.001110 -0.1463542 -0.1404554 2.6777057 11.1972994 1.5044706 -52.0450560 20.2046841
1.3296439 -0.0956562 0.0872260 -0.002460 0.009959 0.000977 0.0009392 -0.0057406 2.7020928 7.2211903 -0.5783319 -52.1284991 20.9204832
1.9937062 0.1835353 0.5454507 0.093696 -0.087908 -0.001773 2.3873002 2.5405192 -0.5652094 54.4198550 28.5332460 -8.2562677 13.8904148
2.0006267 0.1489055 0.4675504 0.082758 -0.090159 -0.003388 4.0784301 3.7878101 -1.9317847 55.7102991 25.3903517 -16.9561241 13.3684149
1.9879008 0.1112977 0.3913602 0.069895 -0.088544 -0.004543 4.5250498 3.7106744 -3.2964014 54.5701937 21.7710036 -25.3916901 13.4404036
1.9564747 0.0721553 0.3204962 0.055868 -0.082832 -0.004819 3.8585536 2.8102082 -3.9433959 51.2711889 17.8235170 -33.0824084 13.7076805
1.9083348 0.0331951 0.2578423 0.041947 -0.073885 -0.004324 2.4728678 1.5969614 -3.4195711 46.1451697 13.8602343 -39.4825131 14.4790523
1.8461780 -0.0039829 0.2051850 0.028811 -0.062214 -0.003294 1.1454332 0.6466222 -2.1262206 39.9656740 9.9768096 -44.4294399 15.2916983
1.7728830 -0.0381641 0.1631794 0.017383 -0.049203 -0.002012 0.2086010 0.0988232 -0.5263170 33.3219983 6.4669050 -47.9473606 16.3968228
1.6910413 -0.0685986 0.1315768 0.007565 -0.035501 -0.000880 -0.2332919 -0.0827129 0.8280035 26.8005341 3.2888184 -50.1896631 17.3372499
1.6026596 -0.0949370 0.1095651 -0.000371 -0.022086 -0.000040 -0.3472085 -0.0567294 1.8559656 20.6545298 0.5624869 -51.4422636 18.4594463
1.5090233 -0.1170851 0.0960743 -0.006939 -0.009403 0.000333 -0.2556950 0.0619399 2.3772174 15.1888656 -1.7876579 -51.9902128 19.2953829
1.4106506 -0.1350284 0.0900072 -0.012058 0.002107 0.000282 -0.1090470 0.1993361 2.7147037 10.3424096 -3.7624181 -52.0261079 20.2760131
2.0549619 0.1134709 0.5400519 0.074169 -0.101910 -0.001977 9.9543864 7.2008057 -2.2329769 63.0793344 22.4516182 -9.2092189 12.0211650
2.0536283 0.0735778 0.4577802 0.060913 -0.102464 -0.003655 11.4570329 6.8936531 -5.1925166 63.3652265 18.5534443 -18.6492729 11.7742707
2.0308676 0.0322127 0.3788808 0.046400 -0.098381 -0.004510 10.3996801 5.1505738 -7.3227364 60.7390095 14.3875008 -27.6015517 12.0305591
1.9884434 -0.0087653 0.3072594 0.031680 -0.089953 -0.004505 7.5778918 2.9892950 -7.5677808 55.6581528 10.1825419 -35.3660865 12.7667453
1.9292795 -0.0475707 0.2456454 0.017939 -0.078052 -0.003701 4.3906858 1.2706633 -6.0067998 48.8481294 6.1203579 -41.5855842 13.7930577
1.8567848 -0.0828357 0.1953659 0.005931 -0.064058 -0.002535 1.8966234 0.3164607 -3.5351999 41.1870501 2.4763897 -46.0558929 15.0012693
1.7741834 -0.1137340 0.1565285 -0.003990 -0.049005 -0.001347 0.4231051 0.0020591 -1.0929064 33.4325438 -0.7235754 -48.9962270 16.2545920
1.6840764 -0.1399155 0.1284158 -0.011960 -0.034021 -0.000477 -0.2084647 0.0504404 0.7790672 26.1360384 -3.3802535 -50.6431544 17.4664951