# volRat = 0.650000
# viscRat = 5.000000
# alpha = 0.750000
# shRate = 2.598000
# tnum = 5700
# time = 5.830791
VARIABLES = X, Y, Z, U, V, W, F_B0, F_B1, F_B2, F_0, F_1, F_2, T
ZONE N=2562 E=5120 F=FEPOINT ET=TRIANGLE
1.6441300 0.3590361 0.6212298 0.128457 -0.031127 -0.000001 3.1755989 13.1321193 0.0000037 24.2476947 48.3524936 0.0009839 20.4642135
-1.6574547 0.5787459 0.6212298 0.124358 0.022669 -0.000004 -2.6034905 14.3036181 0.0000044 -22.3134095 52.3918350 0.0021426 19.6555724
1.6574552 -0.5787437 0.6212298 -0.124358 -0.022668 0.000004 2.6034769 -14.3035962 0.0000044 22.3134946 -52.3916462 -0.0021942 19.6543580
-1.6441297 -0.3590341 0.6212298 -0.128458 0.031129 0.000002 -3.1756562 -13.1323286 0.0000036 -24.2464826 -48.3533383 -0.0010342 20.4675289
0.9817371 -0.0428901 1.1292455 0.007735 0.029953 -0.001223 -1.8265450 1.2534492 17.0724562 -2.2605463 3.0823471 59.1160801 22.6550109
0.9817371 -0.0428901 0.1132140 0.007726 0.029936 0.001106 -1.8126163 1.2439161 -16.9423189 -2.2488335 3.0926102 -58.9871346 22.6525603
-0.9817370 0.0428906 1.1292456 -0.007760 -0.029905 -0.001444 1.8556474 -1.2734616 17.3445153 2.2912589 -3.1282578 59.3792037 22.6553123
-0.9817370 0.0428905 0.1132139 -0.007769 -0.029922 0.001549 1.8680161 -1.2819744 -17.4601923 2.3020382 -3.1161517 -59.4939589 22.6576168
-0.0494800 0.3442210 0.8390453 0.073544 -0.007306 0.002299 -7.0067191 -72.9459127 -42.4477444 -2.2719778 -20.8994350 -7.9870611 25.6434456
0.0494802 -0.3442182 0.8390439 -0.073291 0.009096 0.001391 5.8992894 61.4175829 -35.7393918 1.1544310 9.4653458 -1.5746244 25.5815514
-0.0494801 0.3442201 0.4034149 0.073320 -0.009171 -0.001332 -5.9011747 -61.4341835 35.7491425 -1.1544732 -9.4749380 1.6003015 25.5878064
0.0494801 -0.3442193 0.4034152 -0.073522 0.007164 -0.002393 7.0138870 73.0234737 42.4926499 2.2791486 20.9800824 8.0158127 25.6384399
1.6671993 0.3517440 0.6727708 0.128590 -0.033765 -0.000090 -3.4182336 -13.0404064 -1.1797366 23.3622213 37.4527761 4.3529242 20.2921142
1.6841805 0.3388686 0.7290777 0.125642 -0.035790 -0.000003 -2.7262747 -9.5880114 -1.9834031 25.1038097 38.1595596 10.0819728 19.8532024
1.6922799 0.3206392 0.7879813 0.120711 -0.036702 0.000122 -2.5996819 -8.5754768 -2.8842070 25.6896876 36.8306850 15.7756287 19.6776412
1.6896620 0.2974216 0.8470146 0.113446 -0.036137 0.000255 -2.3364896 -7.3738012 -3.5626009 25.7611716 35.0973876 21.5832703 19.3764083
1.6754124 0.2698299 0.9040338 0.104671 -0.034059 0.000171 -2.0394345 -6.3012238 -4.1011064 24.9300107 32.7557878 27.1503900 19.3894458
1.6493571 0.2388029 0.9570383 0.094401 -0.030287 -0.000188 -1.6597853 -5.1587871 -4.3551192 23.4343872 30.0260150 32.3360380 19.3103465
1.6119733 0.2055038 1.0043718 0.083524 -0.025086 -0.000774 -1.2755388 -4.1237496 -4.4113126 21.2363390 27.0470146 36.9257355 19.5498046
1.5642495 0.1711764 1.0448616 0.072295 -0.018603 -0.001534 -0.9088775 -3.1946241 -4.2700784 18.6118738 23.8869207 40.8365979 19.6958138
1.5075022 0.1369948 1.0778803 0.061508 -0.011382 -0.002285 -0.6033300 -2.4612170 -4.0822614 15.6278445 20.7089882 43.9605276 20.1236296
1.4431938 0.1039520 1.1033151 0.051237 -0.003718 -0.002937 -0.3495281 -1.8556608 -3.8168226 12.5965414 17.5532460 46.3820914 20.3940748
1.3727918 0.0728004 1.1214686 0.041955 0.003826 -0.003331 -0.1522343 -1.3858842 -3.5558463 9.5720090 14.5811429 48.1927130 20.9255640
1.2976954 0.0440470 1.1329410 0.033482 0.010953 -0.003431 -0.0022614 -1.0194629 -3.3082821 6.7710364 11.7259843 49.4491827 21.2257137
1.2192604 0.0179867 1.1385188 0.026007 0.017272 -0.003252 0.1103544 -0.7423706 -3.1241906 4.1782511 9.1179941 50.3200603 21.7596517
1.1389012 -0.0052516 1.1391095 0.019243 0.022679 -0.002733 0.2182880 -0.5842206 -3.3268693 1.9808978 6.5900325 50.5510933 22.0249593
1.0588222 -0.0255405 1.1357172 0.013330 0.026830 -0.001976 0.5297825 -0.6923474 -5.8284665 0.0496730 4.2681722 49.9533669 22.5140359
1.7689302 -0.5487961 0.6870435 -0.117654 -0.037454 -0.001013 -2.3033110 7.2667979 -0.9564046 29.9938999 -41.5887785 6.8109098 18.0626980
1.7861079 -0.5290732 0.7552563 -0.112787 -0.040786 -0.001507 -2.2269836 6.2284758 -1.7731435 31.7911777 -40.1583412 13.9048807 17.6784637
1.7906882 -0.5019289 0.8240202 -0.106122 -0.042675 -0.001999 -1.9152418 4.8716599 -2.2572576 32.5668086 -37.7165249 21.2738503 17.3524782
1.7820403 -0.4677966 0.8907056 -0.097503 -0.042760 -0.002159 -1.5415082 3.6415874 -2.4626285 32.1045546 -34.4249939 28.2690922 17.2338104
1.7599403 -0.4278240 0.9526890 -0.087377 -0.040826 -0.001869 -1.1925044 2.6679474 -2.4991437 30.5433699 -30.4682412 34.5844700 17.2440845
1.7249213 -0.3836248 1.0077269 -0.075957 -0.036773 -0.001267 -0.9104053 1.9670130 -2.4906768 27.9659732 -26.1279093 39.9129867 17.4769545
1.6781669 -0.3370124 1.0542551 -0.063884 -0.030801 -0.000480 -0.6979391 1.4869277 -2.5298719 24.6864057 -21.6221959 44.1586166 17.8510464
1.6212671 -0.2897358 1.0914991 -0.051570 -0.023264 0.000290 -0.5253733 1.1311547 -2.6135814 20.9875099 -17.2037161 47.2626521 18.3525939
1.5559474 -0.2432858 1.1194075 -0.039513 -0.014774 0.000840 -0.3717455 0.8373080 -2.7097208 17.1965929 -13.0234103 49.4201582 18.9371158
1.4838566 -0.1988075 1.1384864 -0.027990 -0.005911 0.001060 -0.2272090 0.5711753 -2.7604420 13.4796209 -9.1908405 50.7351189 19.5808414
1.4064404 -0.1570973 1.1495992 -0.017428 0.002631 0.000904 -0.0984076 0.3379468 -2.8009222 10.0591497 -5.7008054 51.4457283 20.2143916
1.3248844 -0.1186582 1.1538027 -0.007879 0.010461 0.000416 0.0140508 0.1271218 -2.7365014 6.9760489 -2.6203016 51.7239573 20.8394986
1.2400611 -0.0837682 1.1522140 0.000490 0.017164 -0.000324 0.1009881 -0.0466157 -2.5853148 4.2762059 0.1076404 51.8097197 21.4509933
1.1522314 -0.0526213 1.1459228 0.007632 0.022623 -0.001182 0.1532551 -0.1689938 -2.2796171 1.9656587 2.4830968 51.7942908 21.9830343
1.8540652 -0.5153802 0.6933288 -0.110623 -0.051489 -0.000887 -1.9641457 4.2342863 -0.6755800 38.4077707 -39.8165589 7.7278719 16.5213294
1.8700147 -0.4890420 0.7674515 -0.104258 -0.055458 -0.001770 -1.3257986 2.5220369 -0.8798497 40.4198152 -37.4045876 15.9315673 15.9265345
1.8702106 -0.4554570 0.8407660 -0.095566 -0.057011 -0.002119 -0.7371358 1.2634779 -0.7292579 40.7446059 -34.1491633 23.9336966 15.7565533
1.8547617 -0.4154604 0.9102674 -0.085334 -0.056266 -0.002076 -0.3144468 0.4928219 -0.4245556 39.5489948 -30.0255641 31.3735168 15.6392834
1.8242677 -0.3706437 0.9731674 -0.073392 -0.052729 -0.001642 -0.1806117 0.2615190 -0.3216969 36.8097367 -25.4487007 37.7683097 15.9596778
1.7800710 -0.3229751 1.0273380 -0.060901 -0.046800 -0.000873 -0.2126679 0.2860591 -0.4962113 33.0520656 -20.6167319 42.8910402 16.3032238
1.7240568 -0.2744253 1.0715661 -0.047986 -0.038659 -0.000077 -0.3340807 0.4166299 -1.0330514 28.5339138 -15.8742119 46.6400920 17.0149484
1.6583118 -0.2266913 1.1055510 -0.035418 -0.029116 0.000533 -0.3694054 0.4201830 -1.5599916 23.8407227 -11.4106766 49.2234969 17.6524828
1.5848105 -0.1810580 1.1297116 -0.023371 -0.018831 0.000774 -0.3496558 0.3441546 -2.1326277 19.1608232 -7.3333550 50.7514740 18.5288420
1.5052078 -0.1383914 1.1449374 -0.012441 -0.008633 0.000627 -0.2500740 0.1753895 -2.4510078 14.8567224 -3.6820090 51.5380437 19.2179457
1.4207141 -0.0992078 1.1523493 -0.002444 0.001012 0.000086 -0.1326630 -0.0132170 -2.6946725 10.9000187 -0.5064227 51.7671277 20.1100479
1.3319646 -0.0637831 1.1531321 0.006083 0.009520 -0.000731 -0.0116478 -0.1913082 -2.6971428 7.5077887 2.2869342 51.6686113 20.7102897
1.2387031 -0.0323176 1.1484022 0.013481 0.016800 -0.001720 0.0953493 -0.3625112 -2.8320205 4.5011661 4.6501037 51.2795348 21.5213045
1.9345419 -0.4699561 0.6989023 -0.100423 -0.067170 -0.000991 0.4391615 -0.6588365 0.1297676 47.8413754 -36.3428541 8.7314337 14.7189495
1.9466064 -0.4367351 0.7780916 -0.091864 -0.071001 -0.001545 1.7180553 -2.2455977 0.9899796 49.6061160 -33.1050671 17.7254475 14.2634843
1.9402993 -0.3967621 0.8550857 -0.081244 -0.071846 -0.001789 2.4197860 -2.7899588 2.0990092 49.1744178 -28.8982951 26.4085214 14.0857448
1.9162703 -0.3514923 0.9263708 -0.069034 -0.069327 -0.001416 2.3416119 -2.3899033 2.7961363 46.6738812 -24.1396844 34.0542930 14.2876965
1.8760027 -0.3029763 0.9890687 -0.055986 -0.063684 -0.000695 1.6572837 -1.4860672 2.6306951 42.5094235 -19.0349292 40.3282245 14.7771073
1.8217166 -0.2533898 1.0413393 -0.042611 -0.055221 0.000110 0.8043371 -0.6172821 1.6835029 37.2190617 -14.0129587 45.0122941 15.5342817
1.7559573 -0.2046416 1.0824778 -0.029541 -0.044757 0.000725 0.1324930 -0.0813749 0.3694519 31.4804654 -9.2742545 48.2402241 16.4134786
1.6811601 -0.1581689 1.1127302 -0.017170 -0.033063 0.000972 -0.2372028 0.0960212 -0.9066451 25.7141908 -5.0139418 50.1679337 17.3888998
1.5993421 -0.1149134 1.1329742 -0.005859 -0.021162 0.000763 -0.3442966 0.0243670 -1.9037135 20.2879002 -1.2375034 51.1407449 18.3687727
1.5119344 -0.0754129 1.1444135 0.004216 -0.009711 0.000129 -0.2820855 -0.1634681 -2.5019875 15.4035589 2.0119257 51.4262644 19.3046781
1.4196779 -0.0399433 1.1483412 0.012966 0.000670 -0.000837 -0.1563294 -0.3757288 -2.8431379 11.0888695 4.8158835 51.2723006 20.1959739
1.3224864 -0.0086947 1.1460020 0.020271 0.009748 -0.002010 -0.0178064 -0.5646048 -2.9789954 7.3717917 7.1654395 50.8618231 21.0164432
2.0071032 -0.4111261 0.7039008 -0.085785 -0.083483 -0.000775 5.9779035 -6.1605432 1.5695856 57.5185213 -31.0487956 9.6289854 12.8441377
2.0125936 -0.3712228 0.7871189 -0.074911 -0.086551 -0.001134 7.7386627 -6.7539438 4.0097173 58.5481049 -26.8612858 19.3674808 12.3789544
1.9975035 -0.3257049 0.8664796 -0.062303 -0.085558 -0.000804 7.6169341 -5.6058604 6.0039517 56.7351271 -21.9841669 28.3377971 12.5527006
1.9632048 -0.2766412 0.9381254 -0.048775 -0.080726 -0.000106 6.0068637 -3.6396639 6.5814426 52.5787880 -16.7185072 35.9981395 12.9763406
1.9121535 -0.2263701 0.9993166 -0.034941 -0.072153 0.000758 3.7060050 -1.7378133 5.4476110 46.6915589 -11.5315730 41.9186556 13.9107071
1.8473914 -0.1770019 1.0486989 -0.021625 -0.060982 0.001449 1.7151160 -0.5281209 3.3544011 39.9516296 -6.6071026 46.0827229 14.8873757
1.7719381 -0.1301246 1.0861670 -0.009032 -0.047993 0.001656 0.3860986 -0.0372757 1.0154279 32.9977692 -2.2337145 48.6829847 16.1542923
1.6883406 -0.0867533 1.1124964 0.002236 -0.034503 0.001390 -0.2291514 -0.0490733 -0.8347789 26.4157966 1.6136870 50.0439288 17.2275521
1.5984409 -0.0474371 1.1289382 0.012322 -0.021234 0.000581 -0.4039811 -0.2966106 -2.1582466 20.3967317 4.8498233 50.5244667 18.4626661
1.5033034 -0.0124294 1.1369133 0.020849 -0.008999 -0.000579 -0.3214336 -0.5745722 -2.8181475 15.1607531 7.5946115 50.4506098 19.4121554
1.4032075 0.0181314 1.1378164 0.027982 0.001829 -0.001983 -0.1686516 -0.8376754 -3.2150552 10.6134124 9.8579846 50.0166841 20.4761366
2.0673834 -0.3385618 0.7080173 -0.065988 -0.098938 -0.000394 14.8800447 -9.9440244 3.5798812 66.3172642 -23.7251801 10.3550630 11.0328361
2.0637301 -0.2930468 0.7939046 -0.053007 -0.100184 -0.000119 15.7077552 -8.3245116 7.5462386 65.8802540 -18.8128852 20.4603062 10.9157385
2.0379121 -0.2438149 0.8740161 -0.038951 -0.096588 0.000623 13.3176503 -5.3098976 9.8399046 62.3307957 -13.5529846 29.5341686 11.3488165
1.9922720 -0.1933145 0.9444754 -0.024835 -0.088556 0.001650 9.0857113 -2.3733533 9.4300030 56.3194265 -8.2835450 36.9042808 12.2816812
1.9302091 -0.1438220 1.0029627 -0.011267 -0.077066 0.002410 4.8893168 -0.4991690 6.8810119 48.7999795 -3.2865885 42.3543516 13.5042497
1.8553592 -0.0970589 1.0487457 0.001192 -0.063128 0.002707 1.8753892 0.1886219 3.5518484 40.7639577 1.1272375 45.9095042 14.8785967
1.7709226 -0.0540993 1.0823055 0.012353 -0.048221 0.002357 0.2262279 0.0868006 0.5837401 32.9462293 4.9488075 47.9554548 16.2667441
1.6793109 -0.0154862 1.1048440 0.022014 -0.033292 0.001421 -0.4190453 -0.3435905 -1.5229473 25.8051857 8.1035313 48.8476130 17.6073556
1.5820567 0.0185736 1.1178685 0.030203 -0.019372 0.000045 -0.5065209 -0.8017691 -2.7672456 19.5125570 10.7369933 48.9962872 18.8262004
1.4798728 0.0480218 1.1229256 0.036840 -0.006866 -0.001605 -0.3560194 -1.1496276 -3.3413425 14.1328521 12.8644993 48.7035914 19.9393289
2.1104635 -0.2537968 0.7108084 -0.041094 -0.111451 0.000242 24.6667155 -9.0890214 5.5913793 72.7161404 -14.7446096 10.7549752 9.5938573
2.0956514 -0.2048160 0.7976654 -0.026610 -0.109831 0.001103 22.6491348 -5.3875103 10.3729825 70.4632328 -9.5591809 20.9631059 9.8017398
2.0580737 -0.1545990 0.8767970 -0.012155 -0.102946 0.002299 16.6738998 -1.7052507 11.8776757 64.9705201 -4.3428600 29.7940564 10.7752564
2.0010973 -0.1055325 0.9446716 0.001423 -0.091663 0.003340 9.8805882 0.5179940 10.0003365 57.2682021 0.5838867 36.7334059 12.0087094
1.9288065 -0.0594345 0.9995896 0.013621 -0.077286 0.003813 4.4283623 1.0851444 6.1517812 48.4676327 4.9397681 41.5764480 13.6380254
1.8450677 -0.0174153 1.0414473 0.024232 -0.061360 0.003539 1.1959479 0.6039902 2.2668252 39.6178641 8.6475521 44.5722108 15.1392037
1.7529597 0.0200046 1.0711976 0.033274 -0.045148 0.002515 -0.3004752 -0.2660175 -0.7891988 31.3739955 11.6505755 46.1242749 16.7475253
1.6545964 0.0526805 1.0903323 0.040749 -0.029744 0.000954 -0.6828272 -1.0220226 -2.5851702 24.1008564 14.0941238 46.7250729 18.0495911
1.5511834 0.0806417 1.1005026 0.046740 -0.015775 -0.000951 -0.6012102 -1.5779481 -3.5491489 17.8499359 16.0080099 46.7094173 19.4037139
2.1319839 -0.1606916 0.7118607 -0.012251 -0.118759 0.000946 30.4990125 -3.0971230 6.6849294 75.6112702 -4.9585405 10.8213741 8.8811807
2.1051428 -0.1112522 0.7978258 0.002493 -0.113668 0.002393 24.3981707 0.7633470 10.9318695 71.4443449 0.1096602 20.7929283 9.6271025
2.0561083 -0.0631376 0.8743946 0.016084 -0.103486 0.003758 15.5904609 2.8227825 10.9933439 64.2811384 4.9286239 29.1683935 10.9449816
1.9889940 -0.0182104 0.9386413 0.027917 -0.089457 0.004603 7.7282268 2.8166563 7.8390354 55.3396667 9.1813724 35.4608293 12.5861479
1.9081398 0.0224106 0.9895255 0.037951 -0.073218 0.004528 2.5639416 1.5542218 3.6192136 45.8265688 12.7213442 39.7096178 14.3056943
1.8172804 0.0582405 1.0274566 0.046119 -0.056183 0.003599 0.0073644 0.0069788 0.0144191 36.7646604 15.5194825 42.2398330 15.9912387
1.7191787 0.0891986 1.0537108 0.052728 -0.039728 0.001969 -0.8592005 -1.2611631 -2.3812415 28.5861627 17.7135086 43.5108466 17.5369370
1.6156064 0.1153963 1.0699456 0.057771 -0.024601 -0.000079 -0.8804845 -2.0637557 -3.6270013 21.5690340 19.3977986 43.9660017 18.9174380
2.1295722 -0.0650369 0.7109735 0.018131 -0.119341 0.001601 28.7156121 4.4446952 6.2375354 74.6705036 4.8098035 10.5766678 9.0787238
2.0913172 -0.0182920 0.7943104 0.031748 -0.110981 0.003333 19.9149317 5.9662424 8.9480735 68.8112342 9.4600185 20.0583717 10.1655451
2.0323943 0.0250851 0.8670897 0.043293 -0.098169 0.004620 10.6879570 5.0753013 7.6512036 60.4892371 13.5465720 27.7516125 11.8196328
1.9571773 0.0639980 0.9270640 0.052595 -0.082387 0.005000 4.0219663 2.8241364 4.1982303 51.0190078 16.8827997 33.3835353 13.5135191
1.8698521 0.0980034 0.9737451 0.059871 -0.065387 0.004395 0.3349871 0.3402870 0.4943322 41.4982307 19.4596364 37.0494881 15.3672687
1.7738116 0.1270767 1.0079072 0.065418 -0.048444 0.002882 -1.0366086 -1.5308632 -2.1637808 32.7517510 21.3932156 39.2239826 16.9226606
1.6714534 0.1513903 1.0310296 0.069511 -0.032659 0.000810 -1.2252994 -2.7067821 -3.7180191 25.0896833 22.8135909 40.3436988 18.4937070
2.1037552 0.0268711 0.7082626 0.047131 -0.113281 0.001978 20.4082631 8.5708692 4.4986074 70.1579740 13.9618047 10.0678451 10.1367267
2.0559252 0.0684826 0.7875983 0.058484 -0.102488 0.003760 11.8397189 6.9589257 5.4640551 63.1807628 17.8545198 18.8060188 11.5484882
1.9893656 0.1055581 0.8557664 0.067378 -0.088302 0.004720 4.7235206 3.7943048 3.5189488 54.3649328 21.0072957 25.6918059 13.2391806
1.9082741 0.1377037 0.9110998 0.073881 -0.072089 0.004618 0.4563477 0.5003192 0.5031953 45.0332333 23.3521716 30.6121088 14.9905399
1.8164846 0.1649320 0.9535213 0.078550 -0.055428 0.003429 -1.3193503 -2.0016703 -2.0943420 36.0900839 25.0310169 33.8621869 16.6684640
1.7170232 0.1874442 0.9840681 0.081612 -0.039483 0.001533 -1.6091580 -3.4762496 -3.6998287 28.1315711 26.2195845 35.8324442 18.2096027
2.0576673 0.1099408 0.7041109 0.072320 -0.102018 0.002047 10.2963737 7.3486552 2.3570932 62.9085329 21.8382718 9.3129435 11.7918052
2.0025910 0.1451816 0.7785139 0.080945 -0.090021 0.003530 4.2634900 3.9165317 2.0691108 55.5425072 24.7666604 17.2036637 13.1647605
1.9305750 0.1755820 0.8415440 0.087031 -0.075551 0.004065 0.1439569 0.1721006 0.1143775 47.0168601 26.9109841 23.2922722 14.8700338
1.8454731 0.2011868 0.8919600 0.090974 -0.059943 0.003450 -1.6861242 -2.6776600 -2.0164159 38.4527109 28.4136814 27.6412489 16.4249589
1.7508151 0.2221812 0.9300228 0.093347 -0.044563 0.001915 -2.0487790 -4.4532068 -3.6033673 30.4498246 29.3891804 30.5141231 18.0307990
1.9958010 0.1812649 0.6990074 0.092422 -0.087756 0.001857 2.5112590 2.6589903 0.6107331 54.2633004 28.0155834 8.4010601 13.6958967
1.9355377 0.2100458 0.7678993 0.098420 -0.075718 0.002954 -0.6736578 -0.8899335 -0.3518514 47.1372907 30.0212929 15.3740597 15.1134939
1.8596332 0.2343041 0.8253636 0.102245 -0.061974 0.002915 -2.2289441 -3.7718456 -1.9353266 39.3782100 31.4028026 20.7360398 16.5913797
1.7717758 0.2541909 0.8705081 0.104093 -0.047654 0.001871 -2.4896373 -5.5760268 -3.3166889 31.8309929 32.2409320 24.5628729 18.0531360
1.9226860 0.2400546 0.6933783 0.107386 -0.072610 0.001353 -1.7342411 -2.5750501 -0.4580238 45.4185818 32.4681200 7.4906498 15.5893742
1.8585257 0.2630887 0.7563221 0.111152 -0.061173 0.001885 -2.7770469 -5.0995117 -1.5964339 39.0167091 33.7559432 13.6345467 16.7716062
1.7794973 0.2822346 0.8076440 0.113079 -0.048647 0.001483 -2.8775232 -6.7825302 -2.7956484 32.2288863 34.5979080 18.2655686 18.1969486
1.8420926 0.2869981 0.6874755 0.117866 -0.058120 0.000914 -3.2369215 -6.5853216 -0.9465253 37.2226620 35.6073744 6.5549423 17.3807117
1.7742743 0.3054432 0.7437717 0.119965 -0.047690 0.000885 -3.1686336 -8.0186904 -2.0436904 31.5447082 36.2980297 11.8138071 18.5261231
1.7567240 0.3235332 0.6811370 0.124448 -0.044901 0.000104 -3.1004447 -8.6063337 -1.0167478 30.1134193 37.6382955 5.7900422 18.8965589
1.7257429 0.3374007 0.6212298 0.126884 -0.040259 -0.000000 -3.4500842 -10.8866228 -0.0000011 27.5138480 37.7489778 0.0009867 19.5063883
1.8094582 0.3064814 0.6212298 0.121941 -0.052675 -0.000001 -3.2384416 -7.5041806 -0.0000006 34.3050673 36.7937035 0.0003841 17.9257508
1.8917788 0.2654418 0.6212298 0.113652 -0.066566 -0.000000 -2.6972444 -4.6085938 -0.0000003 42.0673631 34.2915414 0.0003878 16.3816998
1.9689530 0.2129099 0.6212298 0.101236 -0.081737 0.000000 0.2783466 0.3449260 0.0000000 50.7746273 30.6205645 -0.0000638 14.4256672
2.0372600 0.1478299 0.6212298 0.083706 -0.096805 -0.000000 6.6547297 5.7564564 0.0000002 59.7880773 25.2598072 0.0002330 12.5426328
2.0922450 0.0701825 0.6212298 0.060914 -0.110061 0.000000 16.6502499 9.2170522 0.0000000 68.1002537 18.1681222 -0.0000401 10.6148476
2.1290832 -0.0182314 0.6212298 0.033414 -0.119173 -0.000000 27.1634558 7.6159366 -0.0000004 74.2259528 9.5146011 0.0000339 9.2654519
2.1436402 -0.1132991 0.6212298 0.003093 -0.122072 0.000000 33.1024679 0.8350118 -0.0000007 77.0921438 -0.0868460 -0.0000490 8.5093146
2.1338973 -0.2090320 0.6212298 -0.027182 -0.117968 -0.000000 30.6567061 -7.0696526 -0.0000007 76.1129808 -10.0139421 0.0000165 8.8713474
2.1008553 -0.2990464 0.6212298 -0.054564 -0.107682 0.000001 21.6299987 -10.9666611 -0.0000004 71.3315952 -19.5814275 -0.0001729 9.9374589
2.0481725 -0.3783142 0.6212298 -0.077155 -0.093189 -0.000000 11.0366227 -9.1424475 -0.0000000 63.4154787 -27.8882795 -0.0000541 11.7157593
1.9808429 -0.4441287 0.6212298 -0.094369 -0.076834 0.000001 3.1983750 -3.9304149 0.0000001 53.8031284 -34.2582523 -0.0002436 13.5514879
1.9038695 -0.4959574 0.6212298 -0.106785 -0.060615 0.000000 -0.9413113 1.6592307 -0.0000001 44.0494060 -38.5606332 -0.0003880 15.5124537
1.8215836 -0.5347111 0.6212298 -0.115134 -0.045651 0.000002 -2.2388378 5.6501078 -0.0000003 34.9974113 -41.1446763 -0.0006078 17.0830172
1.7381931 -0.5619248 0.6212298 -0.120780 -0.032354 0.000001 -2.4648627 9.2093738 -0.0000007 27.2328082 -42.6480904 -0.0014719 18.6748343
1.6801973 -0.5724411 0.5641432 -0.121793 -0.025125 0.000493 -2.5035746 12.1738291 1.2345970 22.3139021 -41.2560944 -5.1562105 19.4664633
1.6967797 -0.5586267 0.5021870 -0.118530 -0.027722 0.000966 -1.9787170 8.5380189 1.9809159 24.2092263 -41.7604839 -11.8379610 19.0221245
1.7043494 -0.5373608 0.4379801 -0.113291 -0.029424 0.001461 -1.8633556 7.3187501 2.7718751 24.9484771 -39.9816774 -18.4312950 18.8502688
1.7010365 -0.5089857 0.3744257 -0.106570 -0.029989 0.001650 -1.6370734 6.0036236 3.2923778 25.0772573 -37.4893134 -24.9780870 18.5432163
1.6859429 -0.4742612 0.3139958 -0.097868 -0.028988 0.001534 -1.3778871 4.8471777 3.6269551 24.2228161 -34.2240287 -31.0646606 18.5665729
1.6589580 -0.4344106 0.2589006 -0.087941 -0.026362 0.001072 -1.0698467 3.7205438 3.6803245 22.6292702 -30.4699226 -36.4892523 18.5281716
1.6206434 -0.3909568 0.2108620 -0.076891 -0.022026 0.000354 -0.7951339 2.8350428 3.6513185 20.3089198 -26.3992638 -40.9951353 18.8050721
1.5720599 -0.3455230 0.1709811 -0.065385 -0.016260 -0.000450 -0.5411478 2.0790579 3.4758088 17.5957825 -22.2414900 -44.6108627 19.0137385
1.5145588 -0.2996377 0.1397124 -0.053601 -0.009371 -0.001164 -0.3419751 1.5350299 3.3595209 14.5653603 -18.1627483 -47.2608641 19.5310967
1.4495898 -0.2546034 0.1169380 -0.042189 -0.001978 -0.001616 -0.1724363 1.0762624 3.1524206 11.5662067 -14.2795169 -49.1673771 19.8809490
1.3785648 -0.2114338 0.1021095 -0.031231 0.005493 -0.001750 -0.0418737 0.7482076 3.0598843 8.6287925 -10.6829722 -50.3597853 20.5019817
1.3027963 -0.1708589 0.0943886 -0.021185 0.012487 -0.001537 0.0625020 0.4669112 2.8883096 5.9583766 -7.3944029 -51.0986964 20.9085862
1.2235380 -0.1333747 0.0927726 -0.012077 0.018640 -0.001018 0.1504359 0.2622301 2.9229428 3.5579416 -4.4259889 -51.3627623 21.5295544
1.1421002 -0.0993048 0.0961585 -0.004194 0.023696 -0.000253 0.2065220 0.0730251 2.7190280 1.5549778 -1.7853667 -51.4460392 21.8663951
1.0606185 -0.0690514 0.1033106 0.002593 0.027539 0.000583 0.4963159 -0.1550291 5.1820879 -0.1851374 0.5172544 -50.8132355 22.4654256
1.7567240 0.3235332 0.5613226 0.124442 -0.044900 -0.000105 -3.1004077 -8.6062311 1.0167341 30.1156823 37.6381858 -5.7902356 18.8979009
1.7742743 0.3054433 0.4986879 0.119966 -0.047691 -0.000885 -3.1686512 -8.0187356 2.0437005 31.5445627 36.2980417 -11.8134691 18.5253287
1.7794973 0.2822346 0.4348156 0.113077 -0.048648 -0.001484 -2.8774860 -6.7824431 2.7956112 32.2297534 34.5984693 -18.2651904 18.1988639
1.7717758 0.2541910 0.3719515 0.104094 -0.047654 -0.001871 -2.4896511 -5.5760584 3.3167066 31.8308484 32.2408331 -24.5631183 18.0521727
1.7508151 0.2221812 0.3124367 0.093344 -0.044565 -0.001917 -2.0487481 -4.4531405 3.6033124 30.4507567 29.3901346 -30.5134847 18.0328211
1.7170232 0.1874442 0.2583915 0.081613 -0.039483 -0.001532 -1.6091581 -3.4762505 3.6998286 28.1313894 26.2191532 -35.8331750 18.2087926
1.6714534 0.1513903 0.2114300 0.069507 -0.032661 -0.000811 -1.2252795 -2.7067386 3.7179583 25.0909013 22.8149781 -40.3429991 18.4961482
1.6156064 0.1153964 0.1725139 0.057770 -0.024600 0.000079 -0.8804723 -2.0637277 3.6269510 21.5694551 19.3965359 -43.9670816 18.9163638
1.5511834 0.0806418 0.1419570 0.046737 -0.015777 0.000951 -0.6011950 -1.5779087 3.5490593 17.8512226 16.0098357 -46.7089758 19.4069947
1.4798728 0.0480218 0.1195339 0.036838 -0.006863 0.001607 -0.3560105 -1.1495991 3.3412585 14.1337063 12.8611842 -48.7051850 19.9385999
1.4032075 0.0181314 0.1046431 0.027978 0.001827 0.001983 -0.1686504 -0.8376697 3.2150324 10.6154818 9.8600315 -50.0165046 20.4793731
1.3224864 -0.0086947 0.0964575 0.020270 0.009755 0.002013 -0.0177979 -0.5643342 2.9775666 7.3721698 7.1597176 -50.8647880 21.0169966
1.2387031 -0.0323175 0.0940574 0.013481 0.016801 0.001721 0.0954009 -0.3627076 2.8335544 4.5026716 4.6493019 -51.2784533 21.5250117
1.1522314 -0.0526213 0.0965367 0.007630 0.022640 0.001179 0.1537644 -0.1695555 2.2871929 1.9673871 2.4716405 -51.7879938 21.9834103
1.8420926 0.2869981 0.5549841 0.117870 -0.058120 -0.000910 -3.2369593 -6.5853987 0.9465353 37.2210017 35.6073364 -6.5562448 17.3796451
1.8585257 0.2630887 0.4861375 0.111151 -0.061173 -0.001886 -2.7770359 -5.0994919 1.5964269 39.0170642 33.7559956 -13.6338286 16.7719357
1.8596332 0.2343041 0.4170960 0.102247 -0.061972 -0.002912 -2.2289835 -3.7719127 1.9353604 39.3773369 31.4021192 -20.7369530 16.5898840
1.8454731 0.2011868 0.3504995 0.090974 -0.059943 -0.003450 -1.6861175 -2.6776498 2.0164076 38.4527408 28.4139749 -27.6406434 16.4255895
1.8164845 0.1649320 0.2889383 0.078553 -0.055426 -0.003426 -1.3193878 -2.0017274 2.0944013 36.0892362 25.0299127 -33.8629158 16.6666641
1.7738116 0.1270767 0.2345523 0.065419 -0.048444 -0.002882 -1.0366119 -1.5308685 2.1637876 32.7517263 21.3939108 -39.2231783 16.9230941
1.7191786 0.0891986 0.1887487 0.052732 -0.039725 -0.001967 -0.8592313 -1.2612085 2.3813267 28.5847059 17.7121381 -43.5114276 17.5349202
1.6545964 0.0526806 0.1521272 0.040751 -0.029746 -0.000956 -0.6828372 -1.0220379 2.5852083 24.1005204 14.0956875 -46.7241224 18.0499352
1.5820567 0.0185736 0.1245911 0.030207 -0.019369 -0.000045 -0.5065467 -0.8018103 2.7673870 19.5109614 10.7357987 -48.9962796 18.8231938
1.5033033 -0.0124294 0.1055463 0.020853 -0.009004 0.000578 -0.3214418 -0.5745870 2.8182189 15.1597876 7.5981625 -50.4495775 19.4125472
1.4196779 -0.0399433 0.0941183 0.012969 0.000672 0.000836 -0.1563373 -0.3757478 2.8432804 11.0871497 4.8150245 -51.2718892 20.1923207
1.3319646 -0.0637831 0.0893275 0.006083 0.009510 0.000729 -0.0116507 -0.1913554 2.6978078 7.5076859 2.2941695 -51.6673177 20.7094235
1.2400611 -0.0837682 0.0902455 0.000491 0.017160 0.000323 0.1010036 -0.0466230 2.5857125 4.2746905 0.1108203 -51.8088318 21.4473402
1.9226860 0.2400546 0.5490812 0.107384 -0.072610 -0.001353 -1.7341998 -2.5749889 0.4580126 45.4197150 32.4680844 -7.4905868 15.5904295
1.9355377 0.2100458 0.4745603 0.098421 -0.075719 -0.002953 -0.6736677 -0.8899466 0.3518565 47.1370084 30.0214947 -15.3740136 15.1132673
1.9305750 0.1755821 0.4009156 0.087028 -0.075552 -0.004067 0.1440027 0.1721554 -0.1144138 47.0176976 26.9113511 -23.2920185 14.8713910
1.9082740 0.1377037 0.3313597 0.073881 -0.072089 -0.004618 0.4563422 0.5003132 -0.5031892 45.0332703 23.3521719 -30.6121790 14.9900355
1.8698521 0.0980034 0.2687145 0.059868 -0.065388 -0.004396 0.3350312 0.3403319 -0.4943972 41.4990407 19.4603345 -37.0493416 15.3691143
1.8172803 0.0582405 0.2150030 0.046118 -0.056183 -0.003599 0.0073674 0.0069816 -0.0144249 36.7649270 15.5190401 -42.2401122 15.9908249
1.7529597 0.0200046 0.1712619 0.033270 -0.045149 -0.002516 -0.3004350 -0.2659820 0.7890933 31.3755540 11.6512579 -46.1242060 16.7495879
1.6793109 -0.0154862 0.1376155 0.022014 -0.033291 -0.001421 -0.4190357 -0.3435827 1.5229123 25.8053918 8.1021400 -48.8481392 17.6074861
1.5984408 -0.0474371 0.1135214 0.012318 -0.021233 -0.000580 -0.4039496 -0.2965876 2.1580784 20.3986999 4.8496169 -50.5248359 18.4654338
1.5119344 -0.0754128 0.0980460 0.004214 -0.009708 -0.000129 -0.2820794 -0.1634646 2.5019329 15.4041419 2.0088601 -51.4266382 19.3048813
1.4207141 -0.0992078 0.0901102 -0.002446 0.001015 -0.000086 -0.1326533 -0.0132161 2.6944771 10.9015359 -0.5081579 -51.7676429 20.1139918
1.3248844 -0.1186582 0.0886568 -0.007878 0.010471 -0.000416 0.0140494 0.1271092 2.7362316 6.9757769 -2.6279709 -51.7237933 20.8406483
1.9958010 0.1812649 0.5434522 0.092424 -0.087756 -0.001856 2.5112108 2.6589394 -0.6107211 54.2625064 28.0155002 -8.4013521 13.6949180
2.0025910 0.1451816 0.4639456 0.080944 -0.090020 -0.003530 4.2634935 3.9165353 -2.0691123 55.5426937 24.7665189 -17.2034544 13.1648332
1.9893655 0.1055581 0.3866932 0.067381 -0.088302 -0.004718 4.7234668 3.7942621 -3.5189087 54.3640546 21.0069429 -25.6922194 13.2380682
1.9571773 0.0639980 0.3153956 0.052595 -0.082387 -0.005000 4.0219661 2.8241367 -4.1982301 51.0190218 16.8828520 -33.3833210 13.5136782
1.9081398 0.0224106 0.2529341 0.037953 -0.073217 -0.004527 2.5638868 1.5541889 -3.6191364 45.8256026 12.7207643 -39.7097339 14.3040404
1.8450677 -0.0174153 0.2010122 0.024234 -0.061361 -0.003539 1.1959403 0.6039865 -2.2668108 39.6174118 8.6482076 -44.5720751 15.1394094
1.7709226 -0.0540993 0.1601541 0.012357 -0.048219 -0.002357 0.2261789 0.0867819 -0.5836138 32.9447350 4.9484530 -47.9553122 16.2645430
1.6883406 -0.0867533 0.1299631 0.002237 -0.034506 -0.001390 -0.2291593 -0.0490751 0.8348076 26.4155468 1.6156656 -50.0437321 17.2271036
1.5993421 -0.1149134 0.1094853 -0.005854 -0.021163 -0.000763 -0.3443307 0.0243694 1.9039025 20.2858420 -1.2367080 -51.1403448 18.3660504
1.5052078 -0.1383914 0.0975222 -0.012441 -0.008638 -0.000627 -0.2500752 0.1753903 2.4510191 14.8565719 -3.6783309 -51.5383846 19.2170777
1.4064403 -0.1570973 0.0928604 -0.017425 0.002626 -0.000904 -0.0984127 0.3379644 2.8010670 10.0578216 -5.6971032 -51.4456506 20.2101090
2.0576673 0.1099408 0.5383486 0.072319 -0.102018 -0.002047 10.2964233 7.3486909 -2.3571043 62.9091174 21.8383478 -9.3131225 11.7927825
2.0559252 0.0684827 0.4548612 0.058484 -0.102489 -0.003760 11.8397184 6.9589260 -5.4640548 63.1807547 17.8547304 -18.8058395 11.5484092
2.0323943 0.0250851 0.3753698 0.043291 -0.098169 -0.004621 10.6880127 5.0753284 -7.6512437 60.4900354 13.5467062 -27.7515022 11.8207286
1.9889940 -0.0182103 0.3038182 0.027917 -0.089458 -0.004603 7.7282291 2.8166577 -7.8390381 55.3396723 9.1815188 -35.4608923 12.5861839
1.9288065 -0.0594345 0.2428699 0.013618 -0.077286 -0.003814 4.4284168 1.0851581 -6.1518571 48.4687920 4.9398008 -41.5764144 13.6395515
1.8553592 -0.0970589 0.1937138 0.001191 -0.063128 -0.002708 1.8753993 0.1886230 -3.5518678 40.7644068 1.1267811 -45.9094545 14.8787068
1.7719381 -0.1301246 0.1562925 -0.009036 -0.047991 -0.001656 0.3861461 -0.0372803 -1.0155531 32.9991562 -2.2343839 -48.6831609 16.1566361
1.6811601 -0.1581689 0.1297293 -0.017171 -0.033061 -0.000972 -0.2371934 0.0960174 0.9066091 25.7144776 -5.0158292 -50.1677746 17.3896494