# volRat = 0.650000
# viscRat = 5.000000
# alpha = 0.750000
# shRate = 2.598000
# tnum = 2800
# time = 2.737368
VARIABLES = X, Y, Z, U, V, W, F_B0, F_B1, F_B2, F_0, F_1, F_2, T
ZONE N=2562 E=5120 F=FEPOINT ET=TRIANGLE
1.6487087 0.3588038 0.6212299 0.128617 -0.032518 -0.000006 3.5878851 14.5233488 0.0000026 24.9096130 49.6373436 0.0036611 20.4991470
-1.6665390 0.5770489 0.6212299 0.123988 0.023755 -0.000005 -2.8892976 14.9704722 0.0000031 -23.2476282 53.3377299 0.0025292 19.6392436
1.6665390 -0.5770487 0.6212299 -0.123988 -0.023756 0.000001 2.8891772 -14.9698645 0.0000032 23.2492398 -53.3351591 -0.0004936 19.6322588
-1.6487086 -0.3588036 0.6212299 -0.128592 0.032513 0.000001 -3.5879033 -14.5234268 0.0000026 -24.9195600 -49.6347998 -0.0007266 20.5012777
0.9877509 -0.0230291 1.1284321 0.011687 0.029932 -0.002248 -1.7121282 1.9208395 16.3181367 -2.0763714 5.2339279 58.3510298 22.7339238
0.9877509 -0.0230291 0.1140276 0.011698 0.029930 0.002120 -1.6946192 1.9011841 -16.1512885 -2.0725097 5.2193049 -58.1866537 22.7275021
-0.9877509 0.0230291 1.1284320 -0.011728 -0.029875 -0.002545 1.7510281 -1.9644467 16.6888994 2.1202468 -5.2865251 58.7122482 22.7279942
-0.9877509 0.0230291 0.1140277 -0.011709 -0.029909 0.002422 1.7237669 -1.9339094 -16.4291256 2.0915593 -5.2448651 -58.4597073 22.7388163
-0.0375847 0.3432122 0.8367346 0.073396 -0.001176 0.005273 -8.4069076 -90.8061028 -52.3139954 -3.6940572 -37.4228321 -17.1557954 25.7088197
0.0375851 -0.3432080 0.8367322 -0.072672 0.008535 0.001355 6.6075247 71.3649469 -41.1171723 1.8898617 18.2223308 -6.5308298 25.6342548
-0.0375850 0.3432094 0.4057267 0.072836 -0.006600 -0.002398 -6.8634019 -74.1327786 42.7136657 -2.1207975 -20.9311900 8.0177679 25.6246203
0.0375850 -0.3432091 0.4057269 -0.072903 0.006440 -0.002495 7.2335777 78.1274265 45.0111603 2.5425839 24.8908314 10.2869690 25.6499495
1.6714970 0.3516028 0.6708797 0.128773 -0.035090 -0.000076 -3.5388646 -13.2382403 -1.1539832 23.6801846 37.5491939 4.1879228 20.3325496
1.6882842 0.3392652 0.7252770 0.126003 -0.037097 -0.000038 -2.7770475 -9.5957832 -1.9149035 25.4690510 38.4279905 9.7844205 19.8932364
1.6962575 0.3220666 0.7823963 0.121376 -0.038010 0.000071 -2.6451079 -8.5956769 -2.7873581 26.0577111 37.1938086 15.3272970 19.7380860
1.6935763 0.3003686 0.8398951 0.114569 -0.037442 0.000144 -2.3785290 -7.4214988 -3.4506955 26.1279277 35.5932773 21.0264700 19.4452713
1.6793279 0.2747341 0.8957166 0.106349 -0.035375 0.000008 -2.0920435 -6.4202644 -4.0075719 25.2796228 33.3909560 26.4876362 19.4788013
1.6533413 0.2460048 0.9479210 0.096714 -0.031616 -0.000428 -1.7204131 -5.3417230 -4.3021358 23.7614919 30.8233760 31.6035393 19.4136466
1.6160933 0.2152104 0.9948833 0.086472 -0.026436 -0.001101 -1.3376826 -4.3493175 -4.4053721 21.5471304 28.0377941 36.1531692 19.6701464
1.5685661 0.1834392 1.0354311 0.075837 -0.019956 -0.001983 -0.9663002 -3.4407820 -4.3108144 18.9085360 25.0714114 40.0688699 19.8203107
1.5120644 0.1517040 1.0689075 0.065569 -0.012738 -0.002872 -0.6517386 -2.7109332 -4.1591464 15.9078017 22.0950332 43.2230573 20.2589249
1.4480340 0.1208462 1.0951449 0.055691 -0.005025 -0.003698 -0.3855353 -2.0892081 -3.9076837 12.8652536 19.1144086 45.7263421 20.5243294
1.3779226 0.0914895 1.1143717 0.046670 0.002604 -0.004273 -0.1774061 -1.6021083 -3.6571799 9.8244485 16.2946599 47.6267036 21.0534718
1.3031074 0.0640439 1.1271016 0.038310 0.009860 -0.004554 -0.0180102 -1.2081533 -3.3904395 7.0008764 13.5601225 49.0128660 21.3454555
1.2249213 0.0387454 1.1340284 0.030806 0.016377 -0.004489 0.1021994 -0.9251763 -3.2411019 4.3802798 11.0172767 49.9571767 21.8707465
1.1447561 0.0157071 1.1359664 0.023868 0.022035 -0.004122 0.2031941 -0.7240341 -3.2510455 2.1433825 8.5395983 50.4904604 22.1227493
1.0647912 -0.0049107 1.1338250 0.017691 0.026472 -0.003325 0.5157547 -0.9613900 -5.8377274 0.1711694 6.1474099 49.8466336 22.6055139
1.7768295 -0.5457971 0.6889794 -0.116786 -0.038869 -0.001105 -2.3308947 7.0434493 -0.9602043 30.8525347 -41.6808866 7.0718897 18.0284909
1.7932895 -0.5251958 0.7589245 -0.111622 -0.042184 -0.001655 -2.1863909 5.8656341 -1.7307826 32.6646583 -40.2514557 14.4316165 17.6459051
1.7970454 -0.4967945 0.8291159 -0.104594 -0.044035 -0.002199 -1.8462301 4.5011627 -2.1654321 33.3803157 -37.6224760 22.0143377 17.3202722
1.7875492 -0.4610661 0.8968322 -0.095538 -0.044031 -0.002374 -1.4487114 3.2688211 -2.3030552 32.8361857 -34.1395080 29.1669670 17.2070751
1.7646535 -0.4192316 0.9593985 -0.084974 -0.042005 -0.002107 -1.1051289 2.3450054 -2.3021264 31.1705011 -29.9305137 35.5605006 17.2224965
1.7289575 -0.3730002 1.0145630 -0.073032 -0.037798 -0.001537 -0.8266528 1.6739750 -2.2427610 28.5152555 -25.3736080 40.9305567 17.4639556
1.6816953 -0.3242909 1.0607921 -0.060449 -0.031668 -0.000816 -0.6399807 1.2537099 -2.2915473 25.1441598 -20.6182195 45.1351700 17.8478416
1.6244897 -0.2749601 1.0973712 -0.047677 -0.023978 -0.000152 -0.4872236 0.9352426 -2.3791890 21.3814295 -15.9964147 48.1767046 18.3625315
1.5590813 -0.2266025 1.1243272 -0.035230 -0.015373 0.000244 -0.3595830 0.6849177 -2.5452636 17.5191223 -11.6008838 50.1919344 18.9589980
1.4871188 -0.1804595 1.1422551 -0.023399 -0.006421 0.000280 -0.2284373 0.4381266 -2.6378249 13.7600205 -7.6068929 51.3754884 19.6178786
1.4100339 -0.1374120 1.1521107 -0.012628 0.002154 -0.000073 -0.1076498 0.2141440 -2.7269246 10.3033988 -3.9716443 51.9352959 20.2639548
1.3289829 -0.0980313 1.1550415 -0.002996 0.009989 -0.000741 0.0025105 0.0078665 -2.7087638 7.1938154 -0.7855833 52.0570200 20.9025201
1.2447889 -0.0626447 1.1522467 0.005338 0.016697 -0.001625 0.0907923 -0.1621986 -2.5796443 4.4641443 2.0190907 52.0084541 21.5250832
1.1576343 -0.0314804 1.1448878 0.012302 0.022168 -0.002588 0.1495652 -0.2805480 -2.3399930 2.1336580 4.4323718 51.7932819 22.0649993
1.8609909 -0.5114424 0.6951721 -0.109350 -0.053075 -0.000942 -1.8338725 3.8108717 -0.6293447 39.3959190 -39.8940088 8.0008455 16.4835181
1.8761590 -0.4841461 0.7708394 -0.102649 -0.057020 -0.001901 -1.1368779 2.0843162 -0.7533239 41.3650893 -37.3450475 16.4608681 15.8930235
1.8755020 -0.4492510 0.8452965 -0.093580 -0.058499 -0.002263 -0.5230862 0.8617791 -0.5166780 41.6095187 -33.9064069 24.6516809 15.7301769
1.8592228 -0.4076418 0.9154778 -0.082898 -0.057647 -0.002234 -0.1063992 0.1593082 -0.1433096 40.3051256 -29.5630499 32.2117079 15.6221717
1.8280071 -0.3609899 0.9785828 -0.070483 -0.053972 -0.001813 0.0009801 -0.0013410 0.0017385 37.4564146 -24.7642038 38.6656996 15.9533983
1.7832639 -0.3113561 1.0325151 -0.057517 -0.047878 -0.001067 -0.0834131 0.1040713 -0.1932960 33.5849115 -19.6920896 43.7543878 16.3089079
1.7269209 -0.2608080 1.0761246 -0.044145 -0.039573 -0.000348 -0.2548291 0.2855565 -0.7793881 28.9773406 -14.7364254 47.4199621 17.0333674
1.6610831 -0.2111390 1.1091918 -0.031156 -0.029907 0.000128 -0.3311003 0.3190388 -1.3743995 24.2108741 -10.0655846 49.8848745 17.6846983
1.5877240 -0.1637285 1.1322244 -0.018772 -0.019540 0.000193 -0.3387316 0.2471453 -2.0107728 19.4836265 -5.8145391 51.2766136 18.5754376
1.5084817 -0.1195328 1.1462027 -0.007576 -0.009315 -0.000155 -0.2550168 0.0747347 -2.3890245 15.1380780 -2.0089253 51.9113531 19.2761129
1.4245343 -0.0791513 1.1523386 0.002563 0.000339 -0.000900 -0.1447023 -0.1267518 -2.6826334 11.1549210 1.2789531 51.9865150 20.1819432
1.3364641 -0.0429324 1.1519041 0.011105 0.008818 -0.001893 -0.0238015 -0.3129209 -2.7135591 7.7394458 4.1679428 51.7429362 20.7912612
1.2439288 -0.0111411 1.1460997 0.018388 0.016093 -0.003023 0.0848570 -0.4966955 -2.8527742 4.7025062 6.5833437 51.2326435 21.6148615
1.9402845 -0.4651237 0.7005270 -0.098701 -0.068845 -0.001075 0.7833545 -1.1365003 0.2314985 48.8766107 -36.2864355 9.0141559 14.6848864
1.9515232 -0.4309429 0.7809579 -0.089811 -0.072607 -0.001633 2.1044253 -2.6550484 1.2126441 50.5665441 -32.8918656 18.2213826 14.2388136
1.9443722 -0.3896853 0.8587234 -0.078797 -0.073334 -0.001875 2.7915333 -3.0905331 2.4196928 50.0201442 -28.4975770 27.0585027 14.0731580
1.9195895 -0.3428664 0.9302853 -0.066171 -0.070661 -0.001479 2.6511671 -2.5715463 3.1589052 47.3914994 -23.5361465 34.7737317 14.2913340
1.8787465 -0.2926130 0.9927967 -0.052702 -0.064887 -0.000772 1.8676519 -1.5618945 2.9516134 43.0848715 -18.1951911 41.0262746 14.7954708
1.8241192 -0.2411825 1.0444871 -0.038871 -0.056247 -0.000020 0.9402395 -0.6495717 1.9530394 37.7051845 -12.9760738 45.6515235 15.5679023
1.7582748 -0.1905670 1.0847375 -0.025384 -0.045665 0.000486 0.2021958 -0.1035606 0.5570055 31.8828891 -8.0330368 48.7715166 16.4618786
1.6836450 -0.1422911 1.1138850 -0.012667 -0.033904 0.000581 -0.2128670 0.0559775 -0.7985334 26.0657454 -3.5922904 50.5611210 17.4486399
1.6022242 -0.0973871 1.1328966 -0.001065 -0.021979 0.000180 -0.3470138 -0.0470546 -1.8642447 20.5990359 0.3393084 51.3821793 18.4419363
1.5154053 -0.0564846 1.1430649 0.009192 -0.010549 -0.000658 -0.2970699 -0.2666574 -2.5150790 15.6916958 3.7183982 51.5120362 19.3884967
1.4238723 -0.0199500 1.1457722 0.018033 -0.000219 -0.001818 -0.1738462 -0.5074982 -2.8902390 11.3483721 6.6296209 51.2090883 20.2915894
1.3274525 0.0119392 1.1423536 0.025273 0.008841 -0.003154 -0.0323977 -0.7184979 -3.0511595 7.6098903 9.0392515 50.6561320 21.1193441
2.0114512 -0.4055398 0.7051957 -0.083628 -0.085099 -0.000813 6.5359893 -6.5169821 1.7171212 58.5177075 -30.8323270 9.8755439 12.8279206
2.0161031 -0.3647610 0.7892512 -0.072453 -0.088048 -0.001155 8.2547145 -6.9401630 4.2764190 59.4103930 -26.4884656 19.7868181 12.3818191
2.0002421 -0.3180720 0.8689436 -0.059477 -0.086886 -0.000819 8.0544898 -5.6547326 6.3394388 57.4912250 -21.4518676 28.8630909 12.5735492
1.9653519 -0.2675966 0.9404397 -0.045566 -0.081903 -0.000126 6.3121836 -3.5763801 6.8921617 53.1970203 -15.9885978 36.5413891 13.0163511
1.9139610 -0.2157352 1.0010739 -0.031354 -0.073203 0.000710 3.8913136 -1.6342168 5.6846755 47.1938520 -10.6003340 42.4111126 13.9646212
1.8491384 -0.1646649 1.0495871 -0.017637 -0.061930 0.001318 1.8216823 -0.4440968 3.5275835 40.3880765 -5.4900903 46.4931170 14.9537650
1.7738946 -0.1160493 1.0859678 -0.004728 -0.048884 0.001415 0.4173481 -0.0038784 1.0812059 33.3573106 -0.9397866 48.9354171 16.2311720
1.6907454 -0.0709904 1.1110805 0.006841 -0.035387 0.000983 -0.2329597 -0.0783984 -0.8299614 26.7403714 3.0623724 50.1500429 17.3134751
1.6014870 -0.0301343 1.1262609 0.017147 -0.022169 -0.000018 -0.4258714 -0.3879240 -2.2010774 20.6978557 6.4350303 50.4784242 18.5579102
1.5071230 0.0061629 1.1330166 0.025805 -0.009991 -0.001376 -0.3473105 -0.7112736 -2.8904801 15.4424127 9.2879096 50.2585512 19.5149661
1.4078511 0.0376571 1.1328335 0.032938 0.000765 -0.002959 -0.1917269 -1.0115729 -3.3057431 10.8756500 11.6347419 49.6851723 20.5879628
2.0701579 -0.3325032 0.7088831 -0.063454 -0.100308 -0.000396 15.4999883 -9.9874113 3.7278467 67.1888192 -23.3753017 10.5493801 11.0565951
2.0657222 -0.2862826 0.7951293 -0.050217 -0.101389 -0.000129 16.1943313 -8.1956582 7.7677020 66.6233821 -18.3372645 20.7849259 10.9606892
2.0393041 -0.2360611 0.8751033 -0.035878 -0.097635 0.000620 13.6350444 -5.0741691 10.0401725 62.9349451 -12.9214799 29.9012210 11.4139556
1.9933378 -0.1843224 0.9450052 -0.021473 -0.089488 0.001652 9.2654045 -2.1213059 9.5600905 56.8131004 -7.4828194 37.2358122 12.3625758
1.9312557 -0.1333888 1.0026201 -0.007583 -0.077916 0.002360 4.9722658 -0.3003800 6.9338153 49.2017347 -2.3137354 42.5972301 13.5943789
1.8566778 -0.0850430 1.0473174 0.005169 -0.063962 0.002577 1.8953183 0.2968493 3.5413576 41.1194754 2.2637032 46.0187298 14.9758362
1.7727610 -0.0404406 1.0796666 0.016638 -0.049108 0.002087 0.2122794 0.0978652 0.5372551 33.2689669 6.2462722 47.9302288 16.3705631
1.6818612 -0.0002239 1.1009495 0.026535 -0.034245 0.000987 -0.4520605 -0.4197490 -1.5985441 26.1153057 9.5322548 48.6744912 17.7153801
1.5854462 0.0352881 1.1127534 0.034908 -0.020436 -0.000569 -0.5449964 -0.9463083 -2.8622590 19.8046001 12.2887082 48.6775585 18.9423771
1.4841524 0.0659186 1.1167118 0.041607 -0.008033 -0.002389 -0.3901019 -1.3392878 -3.4440632 14.4107071 14.5130607 48.2505395 20.0613988
2.1116007 -0.2476995 0.7111709 -0.038354 -0.112428 0.000242 25.0499904 -8.7802661 5.6654577 73.3941748 -14.3059104 10.8934611 9.6687230
2.0961739 -0.1982355 0.7978778 -0.023721 -0.110631 0.001111 22.8393984 -5.0058424 10.4185333 71.0182666 -9.0195490 21.1662330 9.9035994
2.0582819 -0.1472229 0.8764221 -0.009079 -0.103643 0.002302 16.7394595 -1.3476392 11.8495893 65.4198926 -3.6699608 29.9862616 10.8881666
2.0013336 -0.0970664 0.9433889 0.004735 -0.092341 0.003305 9.8879342 0.7903084 9.9151301 57.6385313 1.4086772 36.8521408 12.1289008
1.9293909 -0.0496281 0.9971924 0.017184 -0.077997 0.003725 4.4063510 1.2408450 6.0410196 48.7931052 5.9104097 41.5715871 13.7576293
1.8462622 -0.0060933 1.0378216 0.028076 -0.062150 0.003346 1.1582299 0.6428351 2.1557144 39.9226113 9.7608033 44.4344250 15.2576726
1.7549571 0.0329162 1.0663052 0.037371 -0.046065 0.002197 -0.3498065 -0.3339059 -0.8962372 31.6751258 12.8966492 45.8452700 16.8662375
1.6575184 0.0671368 1.0842065 0.045063 -0.030811 0.000489 -0.7347369 -1.1700355 -2.6889213 24.3950605 15.4675911 46.3077814 18.1714485
1.5550787 0.0964690 1.0932551 0.051166 -0.016972 -0.001570 -0.6488158 -1.7850945 -3.6515560 18.1397634 17.4798402 46.1624418 19.5277335
2.1316388 -0.1550775 0.7116902 -0.009564 -0.119269 0.000945 30.4412588 -2.6650885 6.6385644 76.0962117 -4.4792704 10.9003563 9.0164629
2.1044735 -0.1053583 0.7970183 0.005223 -0.114079 0.002377 24.2412300 1.1247048 10.7831651 71.8335439 0.6774110 20.8798686 9.7742772
2.0554970 -0.0565837 0.8726109 0.018927 -0.103898 0.003718 15.4458310 3.0787509 10.7824441 64.6019656 5.6075633 29.1921262 11.0947896
1.9887995 -0.0106385 0.9356744 0.030947 -0.089961 0.004524 7.6279319 2.9614714 7.6325835 55.6271169 9.9813396 35.3701658 12.7267981
1.9086492 0.0312922 0.9852735 0.041243 -0.073879 0.004367 2.5036653 1.5982135 3.4705320 46.1214814 13.6581885 39.5051727 14.4415733
1.8186950 0.0686205 1.0218944 0.049650 -0.057024 0.003366 -0.0584085 -0.0579261 -0.1116552 37.0550238 16.5762790 41.8770748 16.1206033
1.7216192 0.1011404 1.0468787 0.056511 -0.040751 0.001615 -0.9229825 -1.4102225 -2.4787285 28.8804084 18.8942855 43.0191324 17.6652827
1.6191192 0.1288271 1.0619509 0.061729 -0.025810 -0.000543 -0.9389886 -2.2742799 -3.7091743 21.8668179 20.6885169 43.3463688 19.0454991
2.1281608 -0.0603695 0.7102949 0.020488 -0.119478 0.001588 28.3289354 4.6982759 6.1003754 74.9979627 5.3074930 10.5945025 9.2559707
2.0899498 -0.0134562 0.7925735 0.034078 -0.111140 0.003290 19.5984583 6.1111635 8.7067480 69.0785053 10.0239387 20.0263612 10.3395436
2.0314727 0.0305457 0.8640669 0.045725 -0.098459 0.004525 10.4961188 5.1432999 7.4045064 60.7327452 14.1953411 27.6184321 11.9805818
1.9570272 0.0704873 0.9226551 0.055226 -0.082882 0.004853 3.9138667 2.8266279 4.0090888 51.2686059 17.6321824 33.1184301 13.6603684
1.8706997 0.1058229 0.9679398 0.062753 -0.066112 0.004193 0.2584245 0.2695103 0.3722699 41.7710769 20.3164787 36.6472941 15.4994288
1.7757881 0.1363968 1.0007596 0.068576 -0.049409 0.002603 -1.1052029 -1.6721912 -2.2371340 33.0436016 22.3690017 38.6946497 17.0490566
1.6746088 0.1622390 1.0226519 0.072879 -0.033833 0.000455 -1.2958153 -2.9218436 -3.7800163 25.3883260 23.8885172 39.6752144 18.6175941
2.1018788 0.0303361 0.7071455 0.048986 -0.113270 0.001939 20.0030962 8.5688802 4.3519540 70.3750322 14.4469488 10.0277011 10.3232348
2.0544563 0.0721214 0.7850872 0.060306 -0.102602 0.003675 11.5929142 6.9214770 5.2640524 63.3870477 18.3727077 18.6687558 11.7189870
1.9886756 0.1098732 0.8517381 0.069328 -0.088652 0.004580 4.6038995 3.7512196 3.3614301 54.5929590 21.5967652 25.4298855 13.3904972
1.9086325 0.1431031 0.9055465 0.076055 -0.072708 0.004443 0.3880758 0.4312922 0.4173450 45.2982151 24.0285408 30.2110722 15.1237803
1.8180535 0.1716897 0.9465125 0.081012 -0.056331 0.003206 -1.3806417 -2.1213505 -2.1246062 36.3830180 25.8148114 33.3302367 16.7943916
1.7198708 0.1956862 0.9757298 0.084333 -0.040624 0.001265 -1.6732110 -3.6526997 -3.7010019 28.4459272 27.1068530 35.1774138 18.3256693
2.0559549 0.1122076 0.7026457 0.073646 -0.102088 0.001989 10.1003865 7.2623164 2.2702503 63.1212148 22.2830557 9.2235137 11.9611847
2.0015813 0.1477103 0.7754044 0.082284 -0.090305 0.003412 4.1667296 3.8500989 1.9781902 55.7509596 25.2301763 16.9915820 13.3133732
1.9305923 0.1788731 0.8367579 0.088541 -0.076110 0.003907 0.1028167 0.1235478 0.0795519 47.2758227 27.4339015 22.9387887 14.9984961
1.8467339 0.2056111 0.8855716 0.092747 -0.060787 0.003253 -1.7246752 -2.7506326 -1.9972614 38.7506282 29.0216720 27.1579915 16.5367486
1.7534282 0.2279586 0.9221748 0.095391 -0.045670 0.001709 -2.1030755 -4.5829525 -3.5568657 30.7763071 30.0888075 29.8975018 18.1341650
1.9947743 0.1825335 0.6972829 0.093296 -0.088067 0.001793 2.4659960 2.6131636 0.5852799 54.4753465 28.3884349 8.2754683 13.8353455
1.9354263 0.2116890 0.7643586 0.099354 -0.076262 0.002833 -0.6772313 -0.8942009 -0.3437440 47.4038747 30.4204987 15.1075485 15.2278471
1.8607251 0.2367776 0.8200594 0.103388 -0.062806 0.002772 -2.2401984 -3.7844108 -1.8803717 39.6862009 31.8704351 20.3260411 16.6952499
1.7742470 0.2578014 0.8635937 0.105499 -0.048745 0.001721 -2.5257520 -5.6369838 -3.2317341 32.1722108 32.7861142 24.0196580 18.1442459
1.9227103 0.2406103 0.6914736 0.107942 -0.073229 0.001289 -1.7055737 -2.5218594 -0.4365978 45.6926002 32.7947197 7.3446865 15.6938442
1.8596205 0.2641087 0.7525067 0.111823 -0.062031 0.001780 -2.7671963 -5.0514064 -1.5344128 39.3293106 34.1149352 13.3408363 16.8604352
1.7819326 0.2841018 0.8020627 0.113951 -0.049736 0.001367 -2.8962660 -6.7717221 -2.6977827 32.5830408 35.0173768 17.8342664 18.2696519
1.8433975 0.2871199 0.6854637 0.118205 -0.059033 0.000870 -3.2093551 -6.4713421 -0.9026825 37.5586645 35.9161666 6.3988763 17.4557884
1.7767892 0.3060704 0.7398494 0.120428 -0.048801 0.000826 -3.1934891 -7.9898142 -1.9703435 31.8936498 36.5896230 11.4965989 18.5875379
1.7594563 0.3234481 0.6791043 0.124694 -0.046062 0.000072 -3.0866031 -8.4494127 -0.9657389 30.4957981 37.9765986 5.6389569 18.9505500
1.7289267 0.3370918 0.6212299 0.126990 -0.041488 0.000003 -3.4935377 -10.8441565 0.0000001 27.8618443 37.9141829 0.0005200 19.5454887
1.8112538 0.3062571 0.6212299 0.122168 -0.053695 -0.000005 -3.2197569 -7.3773826 0.0000000 34.6314916 37.0546443 0.0019782 17.9905120
1.8922540 0.2655038 0.6212299 0.114000 -0.067297 0.000001 -2.6600757 -4.5145761 0.0000000 42.3686776 34.5800500 0.0003013 16.4695829
1.9682636 0.2135217 0.6212299 0.101844 -0.082164 -0.000001 0.2892128 0.3575932 -0.0000000 51.0143978 30.9522665 0.0001579 14.5463638
2.0356879 0.1492923 0.6212299 0.084692 -0.096927 0.000000 6.5203209 5.6574540 -0.0000000 59.9733076 25.6339005 0.0002135 12.6975589
2.0902351 0.0727627 0.6212299 0.062409 -0.110014 -0.000000 16.2945023 9.1214016 -0.0000001 68.2853117 18.6082120 0.0002116 10.7994262
2.1272322 -0.0144083 0.6212299 0.035459 -0.119158 0.000001 26.6802609 7.7192158 -0.0000001 74.4909564 9.9879734 -0.0002454 9.4552487
2.1425976 -0.1083520 0.6212299 0.005583 -0.122343 -0.000001 32.8047915 1.2081292 -0.0000001 77.4984448 0.3816716 0.0002338 8.6723320
2.1342001 -0.2033359 0.6212299 -0.024477 -0.118675 0.000001 30.8153466 -6.6478093 -0.0000001 76.6973357 -9.5824151 -0.0002198 8.9817585
2.1027942 -0.2931194 0.6212299 -0.051940 -0.108865 0.000000 22.1893701 -10.8158312 -0.0000001 72.1224693 -19.2047709 0.0000166 9.9870988
2.0517771 -0.3726502 0.6212299 -0.074826 -0.094706 0.000001 11.6866045 -9.3667673 -0.0000001 64.3766018 -27.6253673 -0.0001518 11.7142937
1.9859706 -0.4390850 0.6212299 -0.092473 -0.078521 0.000000 3.6857355 -4.3864553 -0.0000000 54.8664356 -34.1453558 -0.0000094 13.5276748
1.9103099 -0.4917319 0.6212299 -0.105384 -0.062327 0.000001 -0.7200163 1.2266166 0.0000000 45.0543827 -38.5532743 -0.0005190 15.4728815
1.8291228 -0.5313791 0.6212299 -0.114110 -0.047202 -0.000000 -2.1847200 5.3043509 0.0000000 35.9791510 -41.2959342 0.0002790 17.0445517
1.7466142 -0.5594622 0.6212299 -0.120089 -0.033715 0.000003 -2.5471073 9.0809593 0.0000001 28.0768688 -42.8366362 -0.0014654 18.6450936
1.6888715 -0.5704010 0.5623125 -0.121254 -0.026268 0.000585 -2.6219525 12.0727169 1.2699631 23.0255398 -41.3746572 -5.3750103 19.4424332
1.7048220 -0.5558364 0.4985375 -0.117768 -0.028870 0.001129 -2.0192243 8.2797446 1.9920255 24.9715938 -41.9456683 -12.3209636 18.9972928
1.7116215 -0.5334210 0.4326896 -0.112200 -0.030549 0.001685 -1.8815239 7.0317278 2.7647990 25.6749908 -40.0307562 -19.1381792 18.8249191
1.7074791 -0.5035292 0.3678079 -0.105089 -0.031074 0.001926 -1.6346961 5.6964127 3.2509577 25.7507265 -37.3445233 -25.8720613 18.5179521
1.6915653 -0.4669844 0.3064494 -0.095939 -0.029997 0.001847 -1.3581794 4.5196636 3.5339175 24.8287984 -33.8679532 -32.0934958 18.5407819
1.6638315 -0.4250999 0.2508671 -0.085520 -0.027248 0.001410 -1.0431181 3.4027956 3.5400171 23.1563698 -29.8825688 -37.5828870 18.5065040
1.6248910 -0.3795052 0.2027851 -0.073957 -0.022769 0.000750 -0.7680758 2.5336009 3.4652991 20.7645035 -25.5849051 -42.1156160 18.7889029
1.5758435 -0.3319372 0.1632719 -0.061973 -0.016861 0.000038 -0.5266007 1.8309896 3.2984358 17.9726766 -21.1781020 -45.6693020 19.0062870
1.5180659 -0.2840376 0.1327217 -0.049728 -0.009824 -0.000544 -0.3351692 1.3129698 3.1654829 14.8846740 -16.8999461 -48.2640659 19.5344520
1.4530204 -0.2372138 0.1109380 -0.037975 -0.002323 -0.000835 -0.1768521 0.8989068 3.0034477 11.8324159 -12.8163366 -50.0331227 19.8957430
1.3821183 -0.1925712 0.0972827 -0.026759 0.005226 -0.000786 -0.0525575 0.5938405 2.9411020 8.8546329 -9.0637007 -51.0937235 20.5302701
1.3066584 -0.1509122 0.0908248 -0.016572 0.012261 -0.000399 0.0493182 0.3318336 2.8047489 6.1497452 -5.6498882 -51.6856861 20.9501036
1.2278645 -0.1127819 0.0904731 -0.007459 0.018433 0.000257 0.1378735 0.1319227 2.8906724 3.7265946 -2.5962164 -51.7813773 21.5815677
1.1469970 -0.0785256 0.0950475 0.000326 0.023492 0.001126 0.1916132 -0.0468166 2.6381144 1.6859921 0.1005206 -51.8067860 21.9306650
1.0661147 -0.0485324 0.1032472 0.006896 0.027395 0.002035 0.4977086 -0.3992136 5.3467169 -0.0643558 2.3751121 -50.8488036 22.5387672
1.7594563 0.3234481 0.5633555 0.124683 -0.046060 -0.000072 -3.0865303 -8.4492134 0.9657162 30.4992081 37.9766122 -5.6393865 18.9529552
1.7767892 0.3060704 0.5026103 0.120427 -0.048800 -0.000824 -3.1935278 -7.9899109 1.9703675 31.8944606 36.5890339 -11.4963306 18.5856945
1.7819326 0.2841018 0.4403970 0.113950 -0.049737 -0.001367 -2.8962021 -6.7715726 2.6977233 32.5831451 35.0185571 -17.8341479 18.2730018
1.7742470 0.2578014 0.3788661 0.105500 -0.048745 -0.001719 -2.5257823 -5.6370512 3.2317729 32.1721045 32.7855141 -24.0203706 18.1424407
1.7534282 0.2279586 0.3202849 0.095387 -0.045672 -0.001710 -2.1030295 -4.5828522 3.5567880 30.7776995 30.0901551 -29.8964354 18.1366990
1.7198708 0.1956862 0.2667299 0.084337 -0.040624 -0.001262 -1.6732163 -3.6527112 3.7010137 28.4444867 27.1059557 -35.1790326 18.3245157
1.6746088 0.1622390 0.2198079 0.072875 -0.033835 -0.000457 -1.2957989 -2.9218066 3.7799685 25.3895966 23.8909404 -39.6735950 18.6206992
1.6191192 0.1288271 0.1805089 0.061728 -0.025807 0.000546 -0.9389647 -2.2742218 3.7090796 21.8670496 20.6856627 -43.3485592 19.0430512
1.5550787 0.0964690 0.1492047 0.051166 -0.016978 0.001569 -0.6488309 -1.7851358 3.6516406 18.1397256 17.4842644 -46.1605450 19.5320555
1.4841524 0.0659186 0.1257479 0.041605 -0.008027 0.002393 -0.3900575 -1.3391352 3.4436710 14.4112903 14.5082944 -48.2531162 20.0597425
1.4078511 0.0376571 0.1096263 0.032935 0.000762 0.002959 -0.1917696 -1.0117983 3.3064798 10.8773588 11.6381581 -49.6835458 20.5904534
1.3274525 0.0119392 0.1001061 0.025273 0.008842 0.003160 -0.0323496 -0.7174303 3.0466269 7.6093278 9.0364510 -50.6619170 21.1200509
1.2439288 -0.0111411 0.0963600 0.018387 0.016098 0.003010 0.0853801 -0.4997563 2.8703530 4.7041989 6.5800557 -51.2154239 21.6176918
1.1576343 -0.0314804 0.0975720 0.012293 0.022182 0.002611 0.1476109 -0.2768827 2.3094222 2.1364919 4.4264963 -51.8255339 22.0647424
1.8433975 0.2871199 0.5569961 0.118212 -0.059033 -0.000862 -3.2094200 -6.4714729 0.9027009 37.5558844 35.9159754 -6.4023355 17.4541694
1.8596205 0.2641087 0.4899531 0.111820 -0.062031 -0.001784 -2.7671715 -5.0513611 1.5343991 39.3297860 34.1155799 -13.3382828 16.8611652
1.8607251 0.2367776 0.4224003 0.103390 -0.062803 -0.002768 -2.2402582 -3.7845118 1.8804219 39.6857151 31.8688797 -20.3277655 16.6928222
1.8467339 0.2056111 0.3568882 0.092748 -0.060789 -0.003255 -1.7246558 -2.7506016 1.9972389 38.7503331 29.0229384 -27.1564527 16.5382053
1.8180535 0.1716897 0.2959473 0.081013 -0.056327 -0.003202 -1.3806883 -2.1214222 2.1246780 36.3825039 25.8127979 -33.3315618 16.7919941
1.7757881 0.1363968 0.2417001 0.068575 -0.049410 -0.002605 -1.1051977 -1.6721832 2.2371234 33.0444239 22.3703440 -38.6930509 17.0497748
1.7216192 0.1011404 0.1955811 0.056514 -0.040748 -0.001612 -0.9230144 -1.4102713 2.4788142 28.8787594 18.8921199 -43.0203425 17.6632311
1.6575184 0.0671368 0.1582532 0.045063 -0.030814 -0.000491 -0.7347417 -1.1700432 2.6889389 24.3955795 15.4699356 -46.3062994 18.1725667
1.5854462 0.0352881 0.1297064 0.034909 -0.020429 0.000571 -0.5450160 -0.9463423 2.8623618 19.8039823 12.2850808 -48.6783842 18.9386911
1.5071230 0.0061629 0.1094432 0.025809 -0.010000 0.001375 -0.3473191 -0.7112910 2.8905508 15.4413769 9.2933654 -50.2570744 19.5168464
1.4238723 -0.0199500 0.0966875 0.018032 -0.000211 0.001820 -0.1738441 -0.5074918 2.8902026 11.3478568 6.6249864 -51.2094615 20.2879899
1.3364641 -0.0429324 0.0905557 0.011108 0.008809 0.001892 -0.0238160 -0.3131116 2.7152127 7.7386696 4.1741670 -51.7407397 20.7909965
1.2447889 -0.0626447 0.0902130 0.005336 0.016694 0.001631 0.0905986 -0.1618532 2.5741491 4.4636860 2.0218840 -52.0130741 21.5219048
1.9227103 0.2406103 0.5509862 0.107937 -0.073228 -0.001291 -1.7055072 -2.5217610 0.4365808 45.6944581 32.7946415 -7.3442556 15.6953664
1.9354263 0.2116890 0.4781012 0.099357 -0.076263 -0.002829 -0.6772545 -0.8942316 0.3437558 47.4030844 30.4205445 -15.1084815 15.2273912
1.9305923 0.1788731 0.4057018 0.088538 -0.076111 -0.003908 0.1028844 0.1236291 -0.0796042 47.2767919 27.4346719 -22.9382071 15.0004628
1.9086325 0.1431031 0.3369133 0.076056 -0.072707 -0.004441 0.3880556 0.4312698 -0.4173233 45.2981866 24.0278676 -30.2116598 15.1224971
1.8706997 0.1058229 0.2745200 0.062751 -0.066114 -0.004193 0.2584806 0.2695688 -0.3723507 41.7714113 20.3180548 -36.6469623 15.5020309
1.8186950 0.0686205 0.2205653 0.049651 -0.057023 -0.003364 -0.0584165 -0.0579341 0.1116705 37.0546912 16.5751721 -41.8778029 16.1195386
1.7549571 0.0329162 0.1761546 0.037366 -0.046066 -0.002198 -0.3497658 -0.3338670 0.8961330 31.6768186 12.8980668 -45.8448389 16.8682574
1.6818612 -0.0002239 0.1415103 0.026538 -0.034245 -0.000985 -0.4520610 -0.4197494 1.5985458 26.1140728 9.5310820 -48.6752306 17.7150623
1.6014870 -0.0301343 0.1161989 0.017143 -0.022169 0.000019 -0.4258434 -0.3878984 2.2009324 20.6998984 6.4361118 -50.4784042 18.5606479
1.5154053 -0.0564846 0.0993949 0.009192 -0.010545 0.000659 -0.2970702 -0.2666576 2.5150810 15.6912307 3.7151013 -51.5125836 19.3874214
1.4245343 -0.0791513 0.0901211 0.002560 0.000335 0.000902 -0.1446923 -0.1267430 2.6824473 11.1569633 1.2814371 -51.9867294 20.1856703
1.3289829 -0.0980313 0.0874183 -0.002994 0.010001 0.000742 0.0025099 0.0078648 2.7081672 7.1924147 -0.7933859 -52.0575615 20.9031981
1.9947743 0.1825335 0.5451769 0.093299 -0.088067 -0.001791 2.4659279 2.6130914 -0.5852638 54.4742145 28.3882982 -8.2760837 13.8340083
2.0015813 0.1477103 0.4670554 0.082281 -0.090304 -0.003415 4.1667453 3.8501133 -1.9781977 55.7516296 25.2301675 -16.9903533 13.3135461
1.9886756 0.1098732 0.3907216 0.069331 -0.088651 -0.004576 4.6038319 3.7511645 -3.3613807 54.5917312 21.5961459 -25.4308341 13.3891633
1.9570272 0.0704873 0.3198046 0.055225 -0.082882 -0.004855 3.9138814 2.8266385 -4.0091039 51.2691414 17.6326827 -33.1175759 13.6609634
1.9086492 0.0312922 0.2571863 0.041245 -0.073876 -0.004365 2.5036034 1.5981739 -3.4704461 46.1208420 13.6567527 -39.5054293 14.4394087
1.8462622 -0.0060933 0.2046381 0.028077 -0.062152 -0.003346 1.1582403 0.6428408 -2.1557337 39.9226056 9.7622327 -44.4340293 15.2587201
1.7727610 -0.0404406 0.1627932 0.016641 -0.049104 -0.002086 0.2122294 0.0978422 -0.5371286 33.2678291 6.2445444 -47.9302146 16.3682898
1.6907454 -0.0709904 0.1313793 0.006840 -0.035389 -0.000983 -0.2329530 -0.0783961 0.8299373 26.7410468 3.0641782 -50.1498168 17.3136161
1.6022242 -0.0973871 0.1095632 -0.001062 -0.021978 -0.000179 -0.3470466 -0.0470591 1.8644206 20.5973222 0.3389252 -51.3817160 18.4395633
1.5084817 -0.1195328 0.0962570 -0.007575 -0.009317 0.000156 -0.2550105 0.0747329 2.3889654 15.1380234 -2.0067619 -51.9117269 19.2766114
1.4100339 -0.1374120 0.0903491 -0.012627 0.002154 0.000073 -0.1076592 0.2141625 2.7271605 10.3024442 -3.9711477 -51.9346380 20.2595933
2.0559549 0.1122076 0.5398140 0.073645 -0.102088 -0.001987 10.1004576 7.2623675 -2.2702663 63.1219163 22.2831737 -9.2240007 11.9624820
2.0544563 0.0721214 0.4573725 0.060307 -0.102603 -0.003673 11.5929067 6.9214725 -5.2640490 63.3867541 18.3728607 -18.6690105 11.7187275
2.0314727 0.0305457 0.3783929 0.045722 -0.098459 -0.004526 10.4961865 5.1433331 -7.4045542 60.7337987 14.1955560 -27.6180926 11.9817916
1.9887995 -0.0106385 0.3067854 0.030949 -0.089962 -0.004522 7.6279196 2.9614666 -7.6325712 55.6263434 9.9814497 -35.3707839 12.7265775
1.9293909 -0.0496281 0.2452673 0.017181 -0.077997 -0.003725 4.4064087 1.2408613 -6.0410986 48.7942883 5.9108575 -41.5714525 13.7593173
1.8566778 -0.0850430 0.1951424 0.005169 -0.063961 -0.002576 1.8953135 0.2968486 -3.5413487 41.1191271 2.2630830 -46.0189186 14.9751296
1.7738946 -0.1160493 0.1564920 -0.004731 -0.048885 -0.001414 0.4173923 -0.0038788 -1.0813204 33.3586513 -0.9389700 -48.9355727 16.2335305
1.6836450 -0.1422911 0.1285748 -0.012665 -0.033902 -0.000580 -0.2128700 0.0559783 0.7985447 26.0647837 -3.5940511 -50.5611610 17.4486812