# volRat = 0.650000
# viscRat = 5.000000
# alpha = 0.750000
# shRate = 2.598000
# tnum = 5900
# time = 6.044131
VARIABLES = X, Y, Z, U, V, W, F_B0, F_B1, F_B2, F_0, F_1, F_2, T
ZONE N=2562 E=5120 F=FEPOINT ET=TRIANGLE
1.6435481 0.3591634 0.6212298 0.128462 -0.031063 -0.000001 3.1622811 13.1052164 0.0000037 24.2059392 48.3416274 0.0009539 20.4714267
-1.6574781 0.5787499 0.6212298 0.124362 0.022670 -0.000004 -2.6040157 14.3049964 0.0000044 -22.3144329 52.3826293 0.0021248 19.6543918
1.6574786 -0.5787476 0.6212298 -0.124362 -0.022670 0.000004 2.6040023 -14.3049736 0.0000044 22.3146832 -52.3824061 -0.0021850 19.6532070
-1.6435478 -0.3591612 0.6212298 -0.128464 0.031064 0.000002 -3.1623335 -13.1054031 0.0000036 -24.2045149 -48.3424540 -0.0010240 20.4744898
0.9816199 -0.0437909 1.1292952 0.007523 0.029961 -0.001203 -1.8338769 1.2230307 17.1199109 -2.2727032 2.9858728 59.1645039 22.6538819
0.9816198 -0.0437908 0.1131642 0.007514 0.029944 0.001081 -1.8192344 1.2132913 -16.9832707 -2.2602484 2.9959354 -59.0292530 22.6513795
-0.9816198 0.0437913 1.1292954 -0.007548 -0.029914 -0.001415 1.8620781 -1.2418802 17.3832232 2.3025901 -3.0304649 59.4191312 22.6540760
-0.9816197 0.0437913 0.1131642 -0.007557 -0.029930 0.001523 1.8749456 -1.2504854 -17.5034139 2.3139482 -3.0183840 -59.5382382 22.6564305
-0.0494498 0.3441925 0.8391016 0.073574 -0.007318 0.002290 -6.9885713 -72.7488745 -42.3470895 -2.2574396 -20.7197476 -7.8922589 25.6442218
0.0494499 -0.3441896 0.8391002 -0.073325 0.009081 0.001393 5.8826366 61.2374457 -35.6461980 1.1413601 9.3030621 -1.4838493 25.5818686
-0.0494499 0.3441916 0.4033586 0.073354 -0.009159 -0.001335 -5.8828013 -61.2360651 35.6454493 -1.1397601 -9.2928688 1.5046353 25.5886915
0.0494498 -0.3441907 0.4033589 -0.073552 0.007175 -0.002383 6.9992185 72.8626941 42.4131478 2.2678442 20.8382101 7.9365809 25.6388938
1.6666300 0.3518760 0.6728252 0.128597 -0.033695 -0.000094 -3.4098707 -13.0354443 -1.1802598 23.3283763 37.4593136 4.3579116 20.2988530
1.6836314 0.3389899 0.7291857 0.125646 -0.035719 -0.000009 -2.7211873 -9.5888893 -1.9850511 25.0684475 38.1640859 10.0903112 19.8604067
1.6917594 0.3207314 0.7881394 0.120710 -0.036632 0.000114 -2.5954927 -8.5771947 -2.8869126 25.6551748 36.8324258 15.7882518 19.6836542
1.6891780 0.2974646 0.8472171 0.113433 -0.036070 0.000246 -2.3330417 -7.3748734 -3.5659498 25.7287945 35.0955388 21.5991081 19.3820169
1.6749709 0.2698037 0.9042739 0.104642 -0.033996 0.000162 -2.0362675 -6.3001201 -4.1041654 24.9012175 32.7489135 27.1699753 19.3933985
1.6489617 0.2386892 0.9573078 0.094350 -0.030230 -0.000195 -1.6568136 -5.1550986 -4.3569368 23.4098565 30.0131591 32.3588301 19.3132972
1.6116250 0.2052875 1.0046614 0.083449 -0.025035 -0.000779 -1.2728199 -4.1178917 -4.4114308 21.2160312 27.0260261 36.9515618 19.5509940
1.5639467 0.1708473 1.0451608 0.072193 -0.018558 -0.001535 -0.9065369 -3.1873282 -4.2683968 18.5954205 23.8571987 40.8641736 19.6961346
1.5072412 0.1365486 1.0781778 0.061378 -0.011342 -0.002281 -0.6014455 -2.4531715 -4.0790928 15.6145705 20.6691505 43.9891967 20.1225670
1.4429696 0.1033908 1.1035994 0.051082 -0.003682 -0.002928 -0.3481461 -1.8475134 -3.8126660 12.5854504 17.5038772 46.4102130 20.3926417
1.3725987 0.0721332 1.1217288 0.041778 0.003859 -0.003315 -0.1513210 -1.3780867 -3.5514395 9.5625131 14.5220853 48.2190046 20.9234395
1.2975277 0.0432884 1.1331677 0.033286 0.010983 -0.003409 -0.0017104 -1.0122339 -3.3042309 6.7625758 11.6586553 49.4721389 21.2236178
1.2191126 0.0171564 1.1387047 0.025799 0.017298 -0.003226 0.1106112 -0.7351796 -3.1187717 4.1703042 9.0438757 50.3408472 21.7574983
1.1387683 -0.0061303 1.1392501 0.019027 0.022701 -0.002699 0.2186205 -0.5774311 -3.3251870 1.9735999 6.5109358 50.5636205 22.0231444
1.0586997 -0.0264423 1.1358114 0.013111 0.026848 -0.001932 0.5313744 -0.6818433 -5.8375704 0.0439510 4.1862737 49.9533437 22.5123167
1.7690096 -0.5487871 0.6869879 -0.117656 -0.037465 -0.001012 -2.3031998 7.2642522 -0.9553275 30.0005677 -41.5866472 6.8050828 18.0604761
1.7862020 -0.5290783 0.7551522 -0.112793 -0.040799 -0.001506 -2.2275884 6.2282833 -1.7717649 31.7983869 -40.1552820 13.8934359 17.6761564
1.7907915 -0.5019642 0.8238762 -0.106136 -0.042689 -0.001998 -1.9157600 4.8718024 -2.2556115 32.5747874 -37.7171495 21.2582149 17.3502679
1.7821456 -0.4678786 0.8905315 -0.097528 -0.042773 -0.002158 -1.5423033 3.6431073 -2.4616031 32.1122868 -34.4301080 28.2501230 17.2319103
1.7600401 -0.4279689 0.9524954 -0.087417 -0.040837 -0.001870 -1.1936348 2.6708921 -2.4994043 30.5498220 -30.4793500 34.5632309 17.2426683
1.7250084 -0.3838473 1.0075246 -0.076017 -0.036782 -0.001268 -0.9117613 1.9710592 -2.4925717 27.9705927 -26.1462629 39.8905890 17.4761168
1.6782355 -0.3373246 1.0540554 -0.063965 -0.030808 -0.000481 -0.6992389 1.4915052 -2.5331265 24.6889566 -21.6487999 44.1363039 17.8506484
1.6213128 -0.2901457 1.0913131 -0.051676 -0.023268 0.000290 -0.5263445 1.1357897 -2.6174684 20.9878642 -17.2392638 47.2416476 18.3526137
1.5559674 -0.2437967 1.1192458 -0.039643 -0.014776 0.000843 -0.3722770 0.8418359 -2.7135195 17.1951003 -13.0680618 49.4015162 18.9372537
1.4838490 -0.1994174 1.1383582 -0.028145 -0.005910 0.001068 -0.2273183 0.5755671 -2.7634381 13.4765035 -9.2443427 50.7199394 19.5809715
1.4064045 -0.1577990 1.1495120 -0.017604 0.002634 0.000918 -0.0982221 0.3423898 -2.8027810 10.0546238 -5.7625713 51.4348411 20.2143143
1.3248208 -0.1194391 1.1537615 -0.008074 0.010469 0.000437 0.0143719 0.1316498 -2.7368853 6.9705240 -2.6896259 51.7181387 20.8390986
1.2399718 -0.0846114 1.1522206 0.000281 0.017175 -0.000296 0.1013062 -0.0419957 -2.5847374 4.2699481 0.0321847 51.8087771 21.4501280
1.1521207 -0.0535060 1.1459758 0.007415 0.022639 -0.001146 0.1534594 -0.1645454 -2.2780449 1.9588089 2.4023559 51.7987075 21.9819009
1.8541770 -0.5153463 0.6932787 -0.110620 -0.051507 -0.000887 -1.9628791 4.2297394 -0.6744740 38.4181329 -39.8106320 7.7223146 16.5181629
1.8701354 -0.4890206 0.7673608 -0.104259 -0.055478 -0.001768 -1.3241500 2.5178602 -0.8779387 40.4311519 -37.3997873 15.9213646 15.9233421
1.8703329 -0.4554663 0.8406447 -0.095574 -0.057029 -0.002117 -0.7355000 1.2602643 -0.7270168 40.7558110 -34.1475300 23.9200593 15.7535288
1.8548770 -0.4155186 0.9101263 -0.085354 -0.056282 -0.002076 -0.3135655 0.4913740 -0.4230406 39.5588254 -30.0288256 31.3575611 15.6368272
1.8243680 -0.3707687 0.9730170 -0.073429 -0.052741 -0.001642 -0.1807610 0.2617880 -0.3217500 36.8172880 -25.4584385 37.7511237 15.9578042
1.7801496 -0.3231825 1.0271890 -0.060958 -0.046808 -0.000874 -0.2135492 0.2874663 -0.4980037 33.0567770 -20.6343822 42.8738362 16.3020900
1.7241091 -0.2747273 1.0714291 -0.048068 -0.038663 -0.000078 -0.3351247 0.4186608 -1.0359054 28.5358583 -15.9006909 46.6240339 17.0143272
1.6583346 -0.2270956 1.1054363 -0.035525 -0.029117 0.000533 -0.3701718 0.4225327 -1.5630196 23.8401904 -11.4464098 49.2097475 17.6522482
1.5848023 -0.1815670 1.1296287 -0.023505 -0.018828 0.000777 -0.3499593 0.3469512 -2.1349170 19.1581209 -7.3784076 50.7410649 18.5287026
1.5051682 -0.1390017 1.1448941 -0.012600 -0.008627 0.000636 -0.2499837 0.1786722 -2.4520886 14.8523735 -3.7360191 51.5318998 19.2177365
1.4206440 -0.0999109 1.1523515 -0.002625 0.001022 0.000101 -0.1323406 -0.0092162 -2.6944015 10.8944019 -0.5685410 51.7658081 20.1095111
1.3318665 -0.0645650 1.1531825 0.005884 0.009534 -0.000709 -0.0112824 -0.1867467 -2.6958988 7.5010728 2.2175056 51.6723850 20.7094558
1.2385823 -0.0331596 1.1485002 0.013270 0.016819 -0.001692 0.0956880 -0.3571455 -2.8303646 4.4940408 4.5747780 51.2880819 21.5198818
1.9346756 -0.4698868 0.6988608 -0.100412 -0.067196 -0.000990 0.4451570 -0.6674551 0.1314274 47.8555958 -36.3330831 8.7266585 14.7147869
1.9467409 -0.4366765 0.7780191 -0.091855 -0.071027 -0.001543 1.7250082 -2.2534605 0.9932213 49.6205198 -33.0962864 17.7169889 14.2593893
1.9404254 -0.3967349 0.8549933 -0.081243 -0.071868 -0.001787 2.4257966 -2.7956731 2.1027970 49.1873291 -28.8928042 26.3974934 14.0820692
1.9163789 -0.3515173 0.9262689 -0.069046 -0.069344 -0.001415 2.3452724 -2.3931830 2.7989037 46.6839835 -24.1396026 34.0419471 14.2847664
1.8760863 -0.3030731 0.9889676 -0.056017 -0.063695 -0.000694 1.6585028 -1.4875765 2.6314480 42.5159975 -19.0421900 40.3156689 14.7750097
1.8217699 -0.2535748 1.0412491 -0.042665 -0.055226 0.000109 0.8040718 -0.6178071 1.6824432 37.2220466 -14.0288559 45.0007868 15.5329488
1.7559772 -0.2049269 1.0824083 -0.029621 -0.044756 0.000724 0.1318482 -0.0812288 0.3676126 31.4801840 -9.2997256 48.2308488 16.4126524
1.6811453 -0.1585613 1.1126909 -0.017278 -0.033058 0.000973 -0.2375404 0.0969782 -0.9080618 25.7113196 -5.0492367 50.1618243 17.3883606
1.5992929 -0.1154141 1.1329734 -0.005994 -0.021153 0.000767 -0.3441686 0.0264434 -1.9039666 20.2830785 -1.2823368 51.1388307 18.3681703
1.5118522 -0.0760170 1.1444575 0.004055 -0.009697 0.000138 -0.2816394 -0.1601463 -2.5008643 15.3972553 1.9579789 51.4293312 19.3039103
1.4195662 -0.0406406 1.1484338 0.012783 0.000689 -0.000821 -0.1557806 -0.3711264 -2.8407899 11.0816879 4.7537532 51.2807487 20.1947226
1.3223513 -0.0094693 1.1461434 0.020072 0.009771 -0.001988 -0.0173321 -0.5588585 -2.9755874 7.3641500 7.0964345 50.8760023 21.0147926
2.0072442 -0.4110113 0.7038697 -0.085761 -0.083514 -0.000774 5.9926054 -6.1710698 1.5723809 57.5350869 -31.0337045 9.6251062 12.8391741
2.0127249 -0.3711179 0.7870678 -0.074889 -0.086580 -0.001131 7.7532633 -6.7616209 4.0149512 58.5630732 -26.8472213 19.3608423 12.3743752
1.9976149 -0.3256338 0.8664194 -0.062290 -0.085580 -0.000801 7.6277121 -5.6102095 6.0095990 56.7469156 -21.9739510 28.3295655 12.5488760
1.9632879 -0.2766273 0.9380660 -0.048777 -0.080740 -0.000104 6.0124268 -3.6418355 6.5852129 52.5864121 -16.7146596 35.9895450 12.9736071
1.9122022 -0.2264345 0.9992675 -0.034965 -0.072158 0.000759 3.7075597 -1.7392663 5.4487402 46.6947755 -11.5360095 41.9109040 13.9089259
1.8474026 -0.1771614 1.0486696 -0.021675 -0.060980 0.001449 1.7148761 -0.5293810 3.3537885 39.9509931 -6.6211057 46.0769713 14.8864443
1.7719110 -0.1303906 1.0861666 -0.009111 -0.047985 0.001656 0.3857510 -0.0378811 1.0146857 32.9941051 -2.2577434 48.6803531 16.1537529
1.6882760 -0.0871312 1.1125333 0.002128 -0.034490 0.001391 -0.2289739 -0.0483431 -0.8345082 26.4099110 1.5795094 50.0455175 17.2271884
1.5983413 -0.0479262 1.1290193 0.012186 -0.021217 0.000585 -0.4033120 -0.2940050 -2.1565261 20.3894483 4.8059586 50.5309823 18.4620482
1.5031730 -0.0130231 1.1370432 0.020688 -0.008978 -0.000569 -0.3205871 -0.5701719 -2.8151451 15.1526150 7.5418833 50.4626516 19.4112207
1.4030532 0.0174458 1.1379963 0.027801 0.001855 -0.001967 -0.1678720 -0.8315761 -3.2112132 10.6047895 9.7973671 50.0343568 20.4746315
2.0675123 -0.3383942 0.7079976 -0.065948 -0.098971 -0.000392 14.9038477 -9.9491174 3.5838917 66.3323027 -23.7037473 10.3520831 11.0276205
2.0638372 -0.2928907 0.7938763 -0.052969 -0.100211 -0.000115 15.7269714 -8.3248082 7.5526801 65.8916341 -18.7931149 20.4554119 10.9113279
2.0379879 -0.2436976 0.8739891 -0.038923 -0.096604 0.000627 13.3284817 -5.3079071 9.8454595 62.3374262 -13.5381886 29.5285645 11.3455566
1.9923097 -0.1932617 0.9444589 -0.024827 -0.088562 0.001653 9.0890682 -2.3720504 9.4324344 56.3210687 -8.2762239 36.8993034 12.2796974
1.9302054 -0.1438555 1.0029655 -0.011284 -0.077062 0.002411 4.8888799 -0.4996428 6.8807295 48.7972188 -3.2886415 42.3511676 13.5032291
1.8553137 -0.0971948 1.0487766 0.001146 -0.063116 0.002707 1.8743611 0.1873560 3.5507559 40.7578196 1.1148387 45.9093632 14.8781906
1.7708369 -0.0543474 1.0823728 0.012276 -0.048202 0.002357 0.2260645 0.0864228 0.5835995 32.9379933 4.9257342 47.9593890 16.2664690
1.6791883 -0.0158499 1.1049551 0.021907 -0.033270 0.001422 -0.4182940 -0.3418971 -1.5214358 25.7957740 8.0702254 48.8565940 17.6069617
1.5819023 0.0180973 1.1180284 0.030068 -0.019346 0.000050 -0.5053154 -0.7976448 -2.7641762 19.5026331 10.6940056 49.0109595 18.8253220
1.4796939 0.0474422 1.1231366 0.036681 -0.006837 -0.001596 -0.3548356 -1.1434102 -3.3373263 14.1230714 12.8127808 48.7242384 19.9378840
2.1105571 -0.2535746 0.7108003 -0.041035 -0.111478 0.000244 24.6907344 -9.0801893 5.5953660 72.7246343 -14.7177189 10.7527529 9.5894345
2.0957115 -0.2046104 0.7976594 -0.026555 -0.109848 0.001108 22.6622981 -5.3760223 10.3775703 70.4665507 -9.5351706 20.9597727 9.7986888
2.0580927 -0.1544401 0.8768022 -0.012115 -0.102950 0.002304 16.6762826 -1.6967885 11.8793336 64.9684465 -4.3249317 29.7909575 10.7736082
2.0010717 -0.1054471 0.9446963 0.001440 -0.091655 0.003343 9.8772956 0.5210796 9.9985191 57.2614583 0.5932102 36.7318345 12.0083243
1.9287361 -0.0594436 0.9996420 0.013609 -0.077269 0.003814 4.4246065 1.0843986 6.1486117 48.4575040 4.9390361 41.5775884 13.6383499
1.8449548 -0.0175333 1.0415356 0.024188 -0.061336 0.003539 1.1941609 0.6026166 2.2646886 39.6058734 8.6361329 44.5772908 15.1398652
1.7528084 0.0197703 1.0713293 0.033198 -0.045120 0.002515 -0.3001992 -0.2654617 -0.7891268 31.3612383 11.6285724 46.1343354 16.7479395
1.6544124 0.0523293 1.0905131 0.040642 -0.029713 0.000956 -0.6814373 -1.0186032 -2.5829976 24.0883334 14.0620170 46.7409212 18.0495804
1.5509742 0.0801794 1.1007354 0.046607 -0.015742 -0.000947 -0.5995555 -1.5717445 -3.5456073 17.8379243 15.9668433 46.7313230 19.4029741
2.1320184 -0.1604213 0.7118635 -0.012174 -0.118772 0.000949 30.5068617 -3.0749509 6.6864928 75.6089903 -4.9284388 10.8199182 8.8788296
2.1051344 -0.1110070 0.7978406 0.002562 -0.113668 0.002398 24.3932528 0.7805984 10.9308835 71.4363119 0.1357711 20.7912249 9.6263298
2.0560530 -0.0629488 0.8744296 0.016133 -0.103472 0.003762 15.5792302 2.8305722 10.9883186 64.2681937 4.9476184 29.1677154 10.9455336
1.9888918 -0.0181040 0.9387043 0.027939 -0.089433 0.004605 7.7179460 2.8167002 7.8320421 55.3233916 9.1910912 35.4625115 12.5875623
1.9079934 0.0224155 0.9896242 0.037940 -0.073186 0.004527 2.5581665 1.5514252 3.6133927 45.8088416 12.7204594 39.7149138 14.3072663
1.8170945 0.0581325 1.0275984 0.046075 -0.056147 0.003597 0.0058857 0.0055772 0.0115342 36.7470590 15.5079157 42.2499881 15.9926054
1.7189593 0.0889733 1.0539019 0.052652 -0.039690 0.001967 -0.8581153 -1.2591596 -2.3811211 28.5696340 17.6916921 43.5267311 17.5376514
1.6153614 0.1150562 1.0701897 0.057666 -0.024561 -0.000078 -0.8785113 -2.0583030 -3.6248450 21.5540199 19.3664891 43.9882920 18.9173985
2.1295275 -0.0647333 0.7109861 0.018219 -0.119334 0.001603 28.6971316 4.4661932 6.2349783 74.6553643 4.8406429 10.5760384 9.0794270
2.0912248 -0.0180238 0.7943440 0.031823 -0.110960 0.003337 19.8906088 5.9758803 8.9405739 68.7908962 9.4858711 20.0582568 10.1677669
2.0322540 0.0252874 0.8671518 0.043344 -0.098136 0.004622 10.6671309 5.0741845 7.6405314 60.4655577 13.5645703 27.7532273 11.8226283
1.9569919 0.0641109 0.9271621 0.052616 -0.082346 0.005000 4.0093328 2.8183092 4.1881982 50.9944098 16.8911796 33.3882166 13.5168453
1.8696265 0.0980111 0.9738863 0.059858 -0.065342 0.004393 0.3301290 0.3355694 0.4876455 41.4744352 19.4578704 37.0585625 15.3702193
1.7735521 0.1269711 1.0080978 0.065373 -0.048397 0.002878 -1.0366299 -1.5314505 -2.1665935 32.7300953 21.3814013 39.2386979 16.9249645
1.6711675 0.1511703 1.0312737 0.069435 -0.032614 0.000807 -1.2232465 -2.7028472 -3.7179220 25.0705299 22.7924252 40.3646739 18.4949564
2.1036195 0.0271878 0.7082840 0.047222 -0.113249 0.001979 20.3705747 8.5758985 4.4926089 70.1299711 13.9911103 10.0680257 10.1405457
2.0557418 0.0687544 0.7876488 0.058557 -0.102445 0.003761 11.8073264 6.9526870 5.4528201 63.1492178 17.8779602 18.8073980 11.5532399
1.9891371 0.1057571 0.8558533 0.067425 -0.088251 0.004720 4.7027153 3.7829364 3.5065145 54.3325852 21.0224079 25.6956637 13.2440728
1.9080052 0.1378099 0.9112301 0.073896 -0.072033 0.004615 0.4469002 0.4904949 0.4933209 45.0024573 23.3579269 30.6199319 14.9950197
1.8161813 0.1649333 0.9537009 0.078533 -0.055373 0.003424 -1.3212046 -2.0061889 -2.1001670 36.0624452 25.0272447 33.8751672 16.6719948
1.7166930 0.1873357 0.9843016 0.081564 -0.039429 0.001527 -1.6074196 -3.4749603 -3.7021581 28.1075965 26.2069182 35.8515885 18.2121406
2.0574382 0.1102502 0.7041404 0.072404 -0.101965 0.002048 10.2571388 7.3340851 2.3500405 62.8701911 21.8637653 9.3138002 11.7981749
2.0023177 0.1454392 0.7785801 0.081008 -0.089960 0.003529 4.2365088 3.8979158 2.0580913 55.5033601 24.7857847 17.2064488 13.1714670
1.9302615 0.1757637 0.8416536 0.087067 -0.075487 0.004063 0.1303700 0.1560709 0.1037096 46.9794559 26.9222540 23.2982396 14.8762457
1.8451250 0.2012762 0.8921191 0.090980 -0.059880 0.003445 -1.6900171 -2.6870543 -2.0240808 38.4190111 28.4166468 27.6518065 16.4304501
1.7504392 0.2221698 0.9302359 0.093323 -0.044502 0.001909 -2.0475139 -4.4552950 -3.6076466 30.4204985 29.3839820 30.5304088 18.0349531
1.9954835 0.1815506 0.6990443 0.092492 -0.087687 0.001856 2.4836165 2.6340806 0.6047104 54.2189932 28.0357140 8.4026835 13.7036845
1.9351810 0.2102764 0.7679799 0.098469 -0.075646 0.002951 -0.6888714 -0.9114352 -0.3602903 47.0944532 30.0354747 15.3784409 15.1210518
1.8592418 0.2344591 0.8254936 0.102268 -0.061902 0.002910 -2.2339697 -3.7857930 -1.9428335 39.3391913 31.4098850 20.7445327 16.5979222
1.7713555 0.2542579 0.8706919 0.104089 -0.047586 0.001864 -2.4887236 -5.5816394 -3.3218496 31.7969422 32.2409417 24.5765248 18.0585640
1.9222895 0.2403061 0.6934222 0.107440 -0.072533 0.001351 -1.7475355 -2.5990522 -0.4622402 45.3728790 32.4828195 7.4930143 15.5977299
1.8580950 0.2632846 0.7564155 0.111185 -0.061097 0.001881 -2.7816132 -5.1161040 -1.6018851 38.9743846 33.7656798 13.6404152 16.7795417
1.7790367 0.2823584 0.8077909 0.113090 -0.048574 0.001477 -2.8764438 -6.7907582 -2.8003516 32.1909956 34.6018343 18.2758062 18.2037059
1.8416279 0.2872101 0.6875255 0.117903 -0.058041 0.000911 -3.2397183 -6.6023379 -0.9491743 37.1785470 35.6172353 6.5582512 17.3889263
1.7737796 0.3056016 0.7438752 0.119984 -0.047615 0.000879 -3.1663199 -8.0268310 -2.0467060 31.5051400 36.3049228 11.8216772 18.5334983
1.7562021 0.3237046 0.6811913 0.124469 -0.044825 0.000101 -3.0984506 -8.6168256 -1.0185026 30.0725442 37.6430339 5.7935472 18.9042728
1.7251993 0.3375645 0.6212298 0.126903 -0.040186 -0.000000 -3.4449556 -10.8918483 -0.0000010 27.4756734 37.7578257 0.0009795 19.5141014
1.8089643 0.3066851 0.6212298 0.121972 -0.052597 -0.000001 -3.2388032 -7.5184813 -0.0000006 34.2624680 36.8029542 0.0003693 17.9342128
1.8913466 0.2656865 0.6212298 0.113701 -0.066487 -0.000000 -2.7057037 -4.6308746 -0.0000003 42.0211768 34.3048717 0.0003841 16.3903465
1.9685943 0.2131929 0.6212298 0.101302 -0.081663 0.000000 0.2560143 0.3177811 0.0000000 50.7281713 30.6390408 -0.0000654 14.4342947
2.0369856 0.1481434 0.6212298 0.083789 -0.096743 -0.000000 6.6174054 5.7342582 0.0000001 59.7452018 25.2840723 0.0002293 12.5500674
2.0920627 0.0705128 0.6212298 0.061008 -0.110019 0.000000 16.6063147 9.2121806 -0.0000001 68.0659621 18.1972608 -0.0000422 10.6203444
2.1289949 -0.0179033 0.6212298 0.033510 -0.119154 -0.000000 27.1312656 7.6326363 -0.0000006 74.2037397 9.5465844 0.0000334 9.2678587
2.1436390 -0.1129946 0.6212297 0.003182 -0.122077 0.000000 33.0974214 0.8619373 -0.0000010 77.0833966 -0.0545352 -0.0000501 8.5084234
2.1339666 -0.2087700 0.6212297 -0.027108 -0.117992 -0.000000 30.6766535 -7.0511134 -0.0000010 76.1165503 -9.9834167 0.0000144 8.8676692
2.1009722 -0.2988379 0.6212298 -0.054509 -0.107715 0.000001 21.6582902 -10.9649100 -0.0000006 71.3443510 -19.5554216 -0.0001731 9.9323490
2.0483124 -0.3781614 0.6212298 -0.077120 -0.093223 -0.000000 11.0583181 -9.1518688 -0.0000001 63.4323442 -27.8685483 -0.0000527 11.7103713
1.9809842 -0.4440266 0.6212298 -0.094349 -0.076864 0.000001 3.2095381 -3.9414525 0.0000000 53.8194246 -34.2448086 -0.0002462 13.5467552
1.9039950 -0.4958970 0.6212298 -0.106776 -0.060638 0.000000 -0.9377324 1.6520647 -0.0000001 44.0621459 -38.5518420 -0.0003861 15.5086616
1.8216809 -0.5346817 0.6212298 -0.115132 -0.045667 0.000002 -2.2379890 5.6457587 -0.0000003 35.0056652 -41.1390711 -0.0005978 17.0802856
1.7382549 -0.5619163 0.6212298 -0.120783 -0.032362 0.000001 -2.4639511 9.2035530 -0.0000006 27.2380177 -42.6462910 -0.0014775 18.6729214
1.6802375 -0.5724468 0.5641987 -0.121797 -0.025130 0.000492 -2.5049118 12.1785961 1.2338516 22.3162375 -41.2530183 -5.1501622 19.4650329
1.6968375 -0.5586471 0.5022964 -0.118538 -0.027729 0.000964 -1.9796566 8.5405838 1.9796574 24.2127272 -41.7586171 -11.8263106 19.0207052
1.7044218 -0.5374105 0.4381379 -0.113307 -0.029432 0.001460 -1.8643045 7.3213850 2.7702601 24.9529996 -39.9829023 -18.4145301 18.8487804
1.7011181 -0.5090798 0.3746235 -0.106596 -0.029998 0.001650 -1.6380770 6.0070011 3.2909355 25.0820896 -37.4951984 -24.9571335 18.5420608
1.6860270 -0.4744149 0.3142235 -0.097909 -0.028996 0.001534 -1.3790818 4.8520652 3.6265310 24.2272317 -34.2354033 -31.0403524 18.5657699
1.6590379 -0.4346379 0.2591472 -0.087999 -0.026370 0.001073 -1.0711118 3.7266383 3.6814186 22.6327925 -30.4879832 -36.4627261 18.5278403
1.6207127 -0.3912693 0.2111160 -0.076970 -0.022033 0.000355 -0.7962805 2.8417986 3.6538718 20.3110406 -26.4250856 -40.9675821 18.8051910
1.5721134 -0.3459289 0.1712307 -0.065487 -0.016266 -0.000450 -0.5420134 2.0858844 3.4795348 17.5963752 -22.2757957 -44.5835026 19.0142893
1.5145924 -0.3001411 0.1399460 -0.053726 -0.009376 -0.001167 -0.3424554 1.5415782 3.3637038 14.5645219 -18.2057851 -47.2349369 19.5317943
1.4496009 -0.2552032 0.1171451 -0.042339 -0.001982 -0.001623 -0.1725425 1.0822777 3.1565080 11.5639125 -14.3312937 -49.1440192 19.8817725
1.3785513 -0.2121240 0.1022809 -0.031402 0.005491 -0.001763 -0.0416799 0.7538501 3.0633504 8.6253171 -10.7430444 -50.3398603 20.5026518
1.3027575 -0.1716284 0.0945177 -0.021375 0.012488 -0.001557 0.0628728 0.4721641 2.8908689 5.9539127 -7.4618633 -51.0830984 20.9089850
1.2234743 -0.1342078 0.0928552 -0.012281 0.018643 -0.001044 0.1508553 0.2675098 2.9237794 3.5525738 -4.4996955 -51.3525769 21.5296278
1.1420134 -0.1001821 0.0961938 -0.004406 0.023704 -0.000285 0.2070008 0.0781593 2.7203772 1.5489725 -1.8642647 -51.4397337 21.8660373
1.0605128 -0.0699514 0.1033009 0.002377 0.027548 0.000545 0.4965831 -0.1448068 5.1774152 -0.1916127 0.4368176 -50.8151270 22.4645903
1.7562021 0.3237046 0.5612683 0.124463 -0.044825 -0.000103 -3.0984147 -8.6167261 1.0184893 30.0747943 37.6429226 -5.7937276 18.9056027
1.7737796 0.3056016 0.4985844 0.119985 -0.047616 -0.000879 -3.1663366 -8.0268737 2.0467155 31.5049815 36.3049417 -11.8213483 18.5327138
1.7790367 0.2823584 0.4346687 0.113087 -0.048575 -0.001478 -2.8764078 -6.7906739 2.8003156 32.1918672 34.6023886 -18.2754220 18.2056067
1.7713555 0.2542579 0.3717677 0.104090 -0.047586 -0.001864 -2.4887376 -5.5816715 3.3218676 31.7967889 32.2408437 -24.5767741 18.0576072
1.7504392 0.2221699 0.3122237 0.093321 -0.044504 -0.001911 -2.0474840 -4.4552307 3.6075933 30.4214322 29.3849350 -30.5297633 18.0369675
1.7166930 0.1873358 0.2581580 0.081565 -0.039430 -0.001527 -1.6074195 -3.4749608 3.7021576 28.1074067 26.2064859 -35.8523238 18.2113328
1.6711675 0.1511703 0.2111858 0.069432 -0.032616 -0.000808 -1.2232272 -2.7028052 3.7178632 25.0717547 22.7938091 -40.3639705 18.4973904
1.6153614 0.1150562 0.1722699 0.057665 -0.024561 0.000079 -0.8784996 -2.0582762 3.6247967 21.5544355 19.3652271 -43.9893689 18.9163280
1.5509742 0.0801795 0.1417241 0.046604 -0.015744 0.000946 -0.5995402 -1.5717047 3.5455165 17.8392150 15.9686783 -46.7308792 19.4062477
1.4796939 0.0474423 0.1193229 0.036678 -0.006833 0.001597 -0.3548272 -1.1433833 3.3372466 14.1239226 12.8094463 -48.7258301 19.9371607
1.4030532 0.0174459 0.1044633 0.027797 0.001852 0.001967 -0.1678709 -0.8315710 3.2111924 10.6068738 9.7994335 -50.0341721 20.4778603
1.3223512 -0.0094692 0.0963161 0.020071 0.009778 0.001992 -0.0173234 -0.5585765 2.9740848 7.3645232 7.0907236 -50.8790309 21.0153513
1.2385823 -0.0331595 0.0939593 0.013270 0.016820 0.001692 0.0957485 -0.3573712 2.8321539 4.4955601 4.5739083 -51.2867506 21.5235925
1.1521206 -0.0535059 0.0964837 0.007413 0.022656 0.001143 0.1539722 -0.1650952 2.2856556 1.9605847 2.3909388 -51.7923628 21.9822727
1.8416279 0.2872101 0.5549341 0.117906 -0.058041 -0.000908 -3.2397560 -6.6024149 0.9491844 37.1768993 35.6171977 -6.5595309 17.3878667
1.8580950 0.2632847 0.4860441 0.111184 -0.061097 -0.001882 -2.7816028 -5.1160851 1.6018784 38.9747416 33.7657254 -13.6397127 16.7798684
1.8592418 0.2344591 0.4169660 0.102271 -0.061901 -0.002907 -2.2340082 -3.7858586 1.9428665 39.3383182 31.4092112 -20.7454363 16.5964359
1.8451250 0.2012763 0.3503405 0.090980 -0.059880 -0.003446 -1.6900112 -2.6870452 2.0240734 38.4190451 28.4169317 -27.6512082 16.4310766
1.8161813 0.1649333 0.2887587 0.078535 -0.055371 -0.003422 -1.3212411 -2.0062446 2.1002249 36.0615981 25.0261459 -33.8758944 16.6702012
1.7735521 0.1269711 0.2343617 0.065373 -0.048398 -0.002879 -1.0366332 -1.5314557 2.1666004 32.7300726 21.3820955 -39.2378966 16.9253986
1.7189593 0.0889734 0.1885577 0.052656 -0.039687 -0.001966 -0.8581460 -1.2592050 2.3812064 28.5681736 17.6903236 -43.5273102 17.5356369
1.6544124 0.0523294 0.1519465 0.040644 -0.029715 -0.000957 -0.6814470 -1.0186181 2.5830345 24.0879988 14.0635718 -46.7399787 18.0499264
1.5819023 0.0180973 0.1244311 0.030072 -0.019343 -0.000049 -0.5053412 -0.7976859 2.7643176 19.5010352 10.6928166 -49.0109481 18.8223166
1.5031730 -0.0130231 0.1054163 0.020691 -0.008983 0.000568 -0.3205951 -0.5701863 2.8152153 15.1516452 7.5454381 -50.4616258 19.4116109
1.4195661 -0.0406405 0.0940257 0.012786 0.000691 0.000821 -0.1557882 -0.3711447 2.8409288 11.0799587 4.7528737 -51.2803407 20.1910747
1.3318665 -0.0645650 0.0892770 0.005885 0.009524 0.000708 -0.0112853 -0.1867953 2.6965988 7.5009688 2.2247628 -51.6710693 20.7085822
1.2399717 -0.0846114 0.0902389 0.000282 0.017171 0.000295 0.1013184 -0.0420009 2.5850500 4.2684239 0.0353890 -51.8079743 21.4464696
1.9222895 0.2403061 0.5490374 0.107437 -0.072533 -0.001352 -1.7474923 -2.5989880 0.4622285 45.3740052 32.4827896 -7.4929509 15.5987781
1.9351810 0.2102764 0.4744797 0.098470 -0.075647 -0.002951 -0.6888823 -0.9114497 0.3602959 47.0941696 30.0356760 -15.3783946 15.1208278
1.9302615 0.1757637 0.4008059 0.087064 -0.075487 -0.004064 0.1304149 0.1561246 -0.1037453 46.9802915 26.9226174 -23.2979846 14.8775939
1.9080052 0.1378099 0.3312295 0.073896 -0.072034 -0.004615 0.4468932 0.4904873 -0.4933132 45.0024864 23.3579312 -30.6200018 14.9945215
1.8696265 0.0980112 0.2685732 0.059856 -0.065343 -0.004394 0.3301729 0.3356141 -0.4877104 41.4752478 19.4585660 -37.0584129 15.3720544
1.8170944 0.0581325 0.2148611 0.046074 -0.056147 -0.003597 0.0058891 0.0055804 -0.0115408 36.7473205 15.5074728 -42.2502722 15.9921972
1.7528084 0.0197703 0.1711302 0.033194 -0.045121 -0.002515 -0.3001591 -0.2654262 0.7890213 31.3628017 11.6292613 -46.1342615 16.7499943
1.6791883 -0.0158499 0.1375045 0.021906 -0.033269 -0.001422 -0.4182846 -0.3418896 1.5214018 25.7959759 8.0688356 -48.8571197 17.6070949
1.5983412 -0.0479262 0.1134402 0.012182 -0.021216 -0.000585 -0.4032808 -0.2939824 2.1563594 20.3914212 4.8057453 -50.5313483 18.4648135
1.5118521 -0.0760170 0.0980020 0.004054 -0.009694 -0.000138 -0.2816333 -0.1601430 2.5008106 15.3978404 1.9549223 -51.4297016 19.3041158
1.4206440 -0.0999109 0.0901080 -0.002627 0.001025 -0.000100 -0.1323311 -0.0092156 2.6942077 10.8959340 -0.5702696 -51.7663159 20.1134478
1.3248208 -0.1194391 0.0886980 -0.008073 0.010478 -0.000437 0.0143703 0.1316359 2.7365978 6.9702337 -2.6973328 -51.7179802 20.8402680
1.9954835 0.1815506 0.5434153 0.092494 -0.087687 -0.001855 2.4835689 2.6340302 -0.6046987 54.2182067 28.0356299 -8.4029703 13.7027118
2.0023177 0.1454393 0.4638794 0.081007 -0.089959 -0.003530 4.2365107 3.8979179 -2.0580921 55.5035424 24.7856415 -17.2062459 13.1715394
1.9891371 0.1057572 0.3866062 0.067427 -0.088250 -0.004718 4.7026632 3.7828949 -3.5064757 54.3317147 21.0220578 -25.6960733 13.2429655
1.9569919 0.0641109 0.3152974 0.052616 -0.082345 -0.005000 4.0093308 2.8183083 -4.1881962 50.9944214 16.8912246 -33.3880066 13.5170032
1.9079934 0.0224155 0.2528353 0.037943 -0.073185 -0.004526 2.5581113 1.5513921 -3.6133151 45.8078762 12.7198854 -39.7150278 14.3056190
1.8449547 -0.0175333 0.2009239 0.024190 -0.061337 -0.003538 1.1941551 0.6026138 -2.2646777 39.6054238 8.6367834 -44.5771607 15.1400674
1.7708369 -0.0543474 0.1600868 0.012280 -0.048201 -0.002356 0.2260156 0.0864042 -0.5834732 32.9364950 4.9253748 -47.9592489 16.2642757
1.6882760 -0.0871311 0.1299262 0.002129 -0.034493 -0.001391 -0.2289816 -0.0483448 0.8345363 26.4096620 1.5814911 -50.0453230 17.2267361
1.5992928 -0.1154140 0.1094861 -0.005990 -0.021153 -0.000767 -0.3442024 0.0264460 1.9041537 20.2810184 -1.2815401 -51.1384333 18.3654490
1.5051682 -0.1390017 0.0975654 -0.012600 -0.008632 -0.000635 -0.2499849 0.1786731 2.4521002 14.8522077 -3.7323569 -51.5322455 19.2168727
1.4064045 -0.1577990 0.0929475 -0.017602 0.002630 -0.000918 -0.0982271 0.3424073 2.8029239 10.0533026 -5.7588489 -51.4347739 20.2100248
2.0574382 0.1102502 0.5383191 0.072403 -0.101965 -0.002048 10.2571903 7.3341223 -2.3500522 62.8707741 21.8638448 -9.3139739 11.7991457
2.0557418 0.0687544 0.4548107 0.058557 -0.102445 -0.003762 11.8073222 6.9526852 -5.4528184 63.1492056 17.8781674 -18.8072214 11.5531631
2.0322540 0.0252874 0.3753077 0.043342 -0.098136 -0.004623 10.6671856 5.0742113 -7.6405711 60.4663516 13.5647080 -27.7531144 11.8237178
1.9888918 -0.0181040 0.3037552 0.027939 -0.089434 -0.004605 7.7179512 2.8167027 -7.8320479 55.3234008 9.1912392 -35.4625789 12.5876004
1.9287360 -0.0594436 0.2428175 0.013606 -0.077269 -0.003815 4.4246615 1.0844124 -6.1486886 48.4586617 4.9390679 -41.5775553 13.6398701
1.8553137 -0.0971948 0.1936829 0.001145 -0.063116 -0.002707 1.8743721 0.1873573 -3.5507770 40.7582690 1.1143902 -45.9093171 14.8783042
1.7719109 -0.1303905 0.1562929 -0.009114 -0.047983 -0.001656 0.3857976 -0.0378857 -1.0148084 32.9954966 -2.2584104 -48.6805218 16.1560876
1.6811453 -0.1585613 0.1297686 -0.017279 -0.033055 -0.000973 -0.2375313 0.0969745 0.9080271 25.7115973 -5.0511310 -50.1616655 17.3891206