# volRat = 0.650000
# viscRat = 5.000000
# alpha = 0.750000
# shRate = 2.598000
# tnum = 10500
# time = 10.950941
VARIABLES = X, Y, Z, U, V, W, F_B0, F_B1, F_B2, F_0, F_1, F_2, T
ZONE N=2562 E=5120 F=FEPOINT ET=TRIANGLE
1.6334027 0.3614423 0.6212295 0.128632 -0.029947 0.000003 2.9932315 12.8756029 0.0000088 23.5284538 48.3521881 -0.0012433 20.6043460
-1.6619456 0.5780159 0.6212295 0.124237 0.023164 -0.000003 -2.6979694 14.4544639 0.0000094 -22.6717314 52.3622074 0.0015398 19.5901127
1.6619477 -0.5780109 0.6212295 -0.124241 -0.023165 0.000003 2.6979604 -14.4543845 0.0000093 22.6733257 -52.3615024 -0.0013374 19.5887790
-1.6334032 -0.3614377 0.6212295 -0.128633 0.029947 -0.000001 -2.9932340 -12.8755151 0.0000089 -23.5280903 -48.3518999 0.0007371 20.6038376
0.9811964 -0.0548875 1.1298883 0.004877 0.030043 -0.001133 -1.9253407 0.8369635 17.7220179 -2.4092139 1.7915912 59.7647771 22.6445420
0.9811961 -0.0548874 0.1125699 0.004832 0.030054 0.000698 -1.8737449 0.8146622 -17.2472051 -2.3561249 1.7888703 -59.3005523 22.6362042
-0.9811961 0.0548897 1.1298891 -0.004847 -0.030042 -0.000873 1.8951457 -0.8240145 17.4441911 2.3755235 -1.8025019 59.4929298 22.6365715
-0.9811959 0.0548897 0.1125695 -0.004887 -0.030032 0.001175 1.9322786 -0.8400434 -17.7860074 2.4198179 -1.7942777 -59.8265318 22.6462770
-0.0442379 0.3434521 0.8396259 0.074051 -0.006571 0.002528 -6.7562553 -71.2365620 -41.6036646 -2.1404157 -19.3450639 -7.0433913 25.6397252
0.0442380 -0.3434469 0.8396239 -0.073840 0.008558 0.001405 5.6835551 59.9232223 -34.9942083 1.0495903 8.0903711 -0.8184212 25.5875218
-0.0442380 0.3434517 0.4028338 0.073888 -0.008098 -0.001648 -5.7068391 -60.1652248 35.1352675 -1.0623710 -8.2943080 1.0071523 25.5969314
0.0442379 -0.3434482 0.4028348 -0.073996 0.007037 -0.002255 6.7051190 70.6988788 41.2892689 2.0876018 18.8259742 6.7375100 25.6332779
1.6566363 0.3542878 0.6732567 0.128771 -0.032495 -0.000150 -3.2743948 -12.9788278 -1.1799777 22.7414512 37.5862887 4.3957308 20.4271935
1.6739681 0.3413863 0.7300264 0.125847 -0.034499 -0.000110 -2.6366219 -9.6188533 -1.9968031 24.4516741 38.2781949 10.1445814 19.9935028
1.6826180 0.3229137 0.7893607 0.120894 -0.035424 -0.000027 -2.5267127 -8.6275519 -2.9111738 25.0557809 36.9287697 15.8654922 19.8072533
1.6807350 0.2992037 0.8487910 0.113543 -0.034922 0.000087 -2.2788022 -7.4241441 -3.6003806 25.1709574 35.1648389 21.6983599 19.4943214
1.6673701 0.2708530 0.9061771 0.104613 -0.032942 0.000001 -1.9910829 -6.3289354 -4.1403684 24.4094821 32.7738720 27.2994112 19.4841931
1.6422985 0.2388006 0.9595138 0.094124 -0.029305 -0.000338 -1.6184618 -5.1533241 -4.3838931 22.9951893 29.9790629 32.5233610 19.3880024
1.6059393 0.2042329 1.0071292 0.082954 -0.024242 -0.000893 -1.2396730 -4.0847906 -4.4202957 20.8858799 26.9044174 37.1581146 19.5968898
1.5592247 0.1684411 1.0478262 0.071382 -0.017906 -0.001599 -0.8796940 -3.1325497 -4.2594950 18.3412447 23.6318103 41.1015509 19.7247094
1.5034250 0.1326686 1.0809506 0.060231 -0.010809 -0.002291 -0.5802147 -2.3822223 -4.0512017 15.4210934 20.3223663 44.2550147 20.1310464
1.4399707 0.0979926 1.1063678 0.049580 -0.003240 -0.002874 -0.3330297 -1.7699712 -3.7732143 12.4417946 17.0270152 46.6877976 20.3885140
1.3703113 0.0652571 1.1243692 0.039943 0.004227 -0.003195 -0.1413321 -1.2972954 -3.5016160 9.4509044 13.9150108 48.4973557 20.9057861
1.2958391 0.0350588 1.1355574 0.031152 0.011289 -0.003212 0.0039727 -0.9324530 -3.2506486 6.6721114 10.9376136 49.7295507 21.2064801
1.2179093 0.0077742 1.1407346 0.023427 0.017590 -0.002900 0.1157461 -0.6721679 -3.1336337 4.0908748 8.1881270 50.5000291 21.7326000
1.1379378 -0.0164004 1.1408353 0.016467 0.022935 -0.002375 0.2166606 -0.4873570 -3.2276005 1.9027931 5.6033259 50.7809671 22.0030316
1.0581330 -0.0372875 1.1369047 0.010474 0.027009 -0.001668 0.5284452 -0.5321103 -5.7161144 -0.0368545 3.2332103 50.1677753 22.4927312
1.7740866 -0.5473032 0.6865511 -0.117339 -0.038182 -0.001020 -2.3117832 7.1276059 -0.9351748 30.4533562 -41.5027248 6.7747386 17.9674829
1.7912650 -0.5275734 0.7543504 -0.112463 -0.041538 -0.001514 -2.2272650 6.0920662 -1.7304185 32.2617348 -40.0488107 13.8355724 17.5848416
1.7956821 -0.5006348 0.8227715 -0.105843 -0.043413 -0.002007 -1.9020818 4.7375617 -2.1909198 33.0297067 -37.6232324 21.1812067 17.2616447
1.7867046 -0.4669462 0.8891782 -0.097315 -0.043443 -0.002180 -1.5263753 3.5380848 -2.3869942 32.5246930 -34.3615115 28.1554921 17.1519486
1.7641306 -0.4276739 0.9509440 -0.087346 -0.041418 -0.001897 -1.1840112 2.6075005 -2.4330612 30.8983964 -30.4595243 34.4445596 17.1772774
1.7285330 -0.3844315 1.0058322 -0.076168 -0.037264 -0.001305 -0.9100749 1.9450066 -2.4457539 28.2453417 -26.2009583 39.7556488 17.4264407
1.6811422 -0.3390084 1.0522959 -0.064372 -0.031178 -0.000524 -0.7060896 1.4991345 -2.5193101 24.8882612 -21.7926465 43.9798571 17.8149503
1.6235917 -0.2931047 1.0895812 -0.052399 -0.023534 0.000255 -0.5349472 1.1612636 -2.6259840 21.1186396 -17.4968935 47.0781067 18.3313784
1.5576404 -0.2481433 1.1176534 -0.040720 -0.014961 0.000831 -0.3790617 0.8774827 -2.7356333 17.2697867 -13.4445507 49.2425761 18.9245523
1.4849595 -0.2051891 1.1370239 -0.029581 -0.006020 0.001102 -0.2303836 0.6163752 -2.7869722 13.5054662 -9.7476566 50.5802036 19.5732268
1.4070095 -0.1649544 1.1485482 -0.019386 0.002596 0.001018 -0.0979074 0.3876087 -2.8195982 10.0478834 -6.3909587 51.3277864 20.2087736
1.3249875 -0.1278595 1.1532608 -0.010172 0.010487 0.000619 0.0167279 0.1807322 -2.7458882 6.9396504 -3.4290120 51.6531834 20.8318197
1.2397790 -0.0941069 1.1522452 -0.002076 0.017265 -0.000022 0.1046055 0.0097446 -2.5908136 4.2199559 -0.8158238 51.7869598 21.4387071
1.1516663 -0.0638254 1.1465480 0.004874 0.022798 -0.000823 0.1529067 -0.1115818 -2.2246770 1.8903015 1.4590235 51.8796283 21.9661986
1.8594834 -0.5130086 0.6929240 -0.110093 -0.052396 -0.000880 -1.8876260 3.9760515 -0.6351868 38.9823273 -39.6348022 7.6997193 16.4069040
1.8752889 -0.4866050 0.7667326 -0.103690 -0.056368 -0.001765 -1.2166622 2.2623461 -0.7913011 40.9937844 -37.2028623 15.8890261 15.8113238
1.8751476 -0.4532215 0.8398045 -0.095029 -0.057860 -0.002103 -0.6194313 1.0389704 -0.6015919 41.2776422 -33.9564901 23.8742421 15.6505330
1.8591866 -0.4137183 0.9091198 -0.084903 -0.057009 -0.002063 -0.2162769 0.3323925 -0.2871589 40.0107024 -29.8674478 31.2979443 15.5498515
1.8280495 -0.3696990 0.9718868 -0.073150 -0.053332 -0.001640 -0.1189532 0.1695107 -0.2087344 37.1771454 -25.3569196 37.6746671 15.8879520
1.7831360 -0.3231176 1.0259905 -0.060925 -0.047253 -0.000887 -0.1858620 0.2475290 -0.4280950 33.3178306 -20.6208644 42.7814249 16.2545858
1.7263864 -0.2759017 1.0702406 -0.048351 -0.038971 -0.000101 -0.3292003 0.4106674 -1.0071918 28.7083811 -15.9983562 46.5218417 16.9823052
1.6599303 -0.2296814 1.1043600 -0.036176 -0.029310 0.000511 -0.3728488 0.4321684 -1.5622739 23.9395290 -11.6699327 49.1092938 17.6344812
1.5857700 -0.1856596 1.1287815 -0.024543 -0.018919 0.000780 -0.3529355 0.3679582 -2.1441000 19.1992162 -7.7389051 50.6558673 18.5179339
1.5055770 -0.1446142 1.1443938 -0.014033 -0.008649 0.000682 -0.2502746 0.2085953 -2.4587194 14.8524865 -4.2269464 51.4783059 19.2123705
1.4205734 -0.1069747 1.1523015 -0.004425 0.001075 0.000215 -0.1301552 0.0307928 -2.6911178 10.8642149 -1.1910626 51.7553304 20.1013390
1.3314087 -0.0729348 1.1536590 0.003764 0.009657 -0.000522 -0.0081630 -0.1381222 -2.6778529 7.4497599 1.4755631 51.7194409 20.7005491
1.2378539 -0.0426200 1.1495397 0.010894 0.016989 -0.001433 0.0976781 -0.2941421 -2.7792344 4.4280589 3.7422679 51.4148224 21.5051395
1.9399232 -0.4665055 0.6986026 -0.099581 -0.068224 -0.000976 0.7041921 -1.0305702 0.2044054 48.4959281 -36.0303888 8.7170285 14.5832767
1.9516516 -0.4331834 0.7775793 -0.090964 -0.072014 -0.001517 2.0229327 -2.5789286 1.1471301 50.2329233 -32.7659421 17.7044200 14.1344569
1.9448023 -0.3934443 0.8544214 -0.080381 -0.072746 -0.001748 2.6968660 -3.0345877 2.3063079 49.7251903 -28.5687535 26.3774474 13.9701300
1.9200694 -0.3487654 0.9255990 -0.068299 -0.070041 -0.001366 2.5393375 -2.5337932 2.9949488 47.1117346 -23.8656410 34.0078283 14.1967123
1.8790040 -0.3011932 0.9882383 -0.055497 -0.064210 -0.000658 1.7660746 -1.5540589 2.7744019 42.8263556 -18.8478855 40.2681111 14.7107604
1.8238953 -0.2528646 1.0405219 -0.042454 -0.055557 0.000126 0.8465029 -0.6423657 1.7573082 37.4205212 -13.9472918 44.9402483 15.4911159
1.7573439 -0.2056205 1.0817737 -0.029784 -0.044928 0.000722 0.1427070 -0.0881046 0.3957030 31.5873136 -9.3536799 48.1723004 16.3881110
1.6818204 -0.1608123 1.1122620 -0.017863 -0.033116 0.000966 -0.2370420 0.1010656 -0.9038383 25.7504143 -5.2455325 50.1171206 17.3754889
1.5993611 -0.1192891 1.1328717 -0.007010 -0.021119 0.000780 -0.3432158 0.0423263 -1.9014958 20.2736070 -1.6259357 51.1244798 18.3594383
1.5114094 -0.0814971 1.1447965 0.002621 -0.009590 0.000195 -0.2781421 -0.1302142 -2.4898200 15.3556713 1.4701401 51.4600184 19.2956831
1.4187213 -0.0476251 1.1493028 0.010971 0.000849 -0.000699 -0.1508597 -0.3256177 -2.8176022 11.0189928 4.1372606 51.3672742 20.1837459
1.3212380 -0.0177803 1.1475938 0.017936 0.010000 -0.001783 -0.0128385 -0.5000744 -2.9499203 7.2909944 6.3553675 51.0188584 20.9965305
2.0120565 -0.4064425 0.7037058 -0.084531 -0.084588 -0.000757 6.5449562 -6.5544007 1.6948898 58.2252622 -30.5842167 9.6227888 12.6985580
2.0169835 -0.3664560 0.7868018 -0.073612 -0.087555 -0.001070 8.2721160 -7.0048451 4.2352591 59.1449888 -26.3575363 19.3549609 12.2491097
2.0011378 -0.3212693 0.8660843 -0.061067 -0.086360 -0.000714 8.0252835 -5.7246990 6.2626411 57.2115971 -21.5166250 28.3148129 12.4478395
1.9659663 -0.2729584 0.9376884 -0.047736 -0.081291 -0.000017 6.2439155 -3.6660694 6.7863479 52.9131725 -16.3284581 35.9628293 12.9028347
1.9140093 -0.2238281 0.9988925 -0.034218 -0.072473 0.000825 3.8078655 -1.7329666 5.5645202 46.8922146 -11.2660145 41.8766508 13.8649786
1.8483788 -0.1759177 1.0483745 -0.021318 -0.061112 0.001481 1.7423348 -0.5244008 3.3959417 40.0427687 -6.4864036 46.0421606 14.8661898
1.7721389 -0.1307220 1.0860589 -0.009199 -0.047968 0.001662 0.3880277 -0.0387000 1.0199426 33.0084411 -2.2784327 48.6578855 16.1453201
1.6878592 -0.0891564 1.1127368 0.001572 -0.034377 0.001388 -0.2283679 -0.0445675 -0.8345059 26.3728247 1.4004310 50.0540172 17.2268771
1.5973938 -0.0516726 1.1296558 0.011164 -0.021040 0.000603 -0.3982014 -0.2744031 -2.1448675 20.3223820 4.4732741 50.5854600 18.4614118
1.5018203 -0.0184321 1.1382148 0.019233 -0.008750 -0.000508 -0.3127735 -0.5306667 -2.7885978 15.0698915 7.0629076 50.5772684 19.4071606
1.4014417 0.0105149 1.1397694 0.025969 0.002129 -0.001841 -0.1600421 -0.7708128 -3.1723787 10.5152878 9.1843434 50.2161097 20.4622490
2.0714305 -0.3325992 0.7079125 -0.064285 -0.099964 -0.000341 15.6572513 -10.0790423 3.7300944 66.8931446 -23.0744032 10.3469421 10.8956180
2.0669820 -0.2871028 0.7937472 -0.051277 -0.101007 -0.000013 16.3287538 -8.2875801 7.7832294 66.3292407 -18.1662067 20.4417934 10.8061555
2.0402289 -0.2383802 0.8738373 -0.037349 -0.097133 0.000743 13.6829031 -5.1812491 10.0510084 62.6261839 -12.9706987 29.5080755 11.2729794
1.9936118 -0.1888548 0.9443157 -0.023531 -0.088824 0.001764 9.2277034 -2.2524339 9.5422650 56.4701108 -7.8152458 36.8685159 12.2413179
1.9306157 -0.1407297 1.0028951 -0.010377 -0.077091 0.002484 4.9087760 -0.4363398 6.8994888 48.8293312 -2.9685360 42.3194893 13.4891948
1.8549314 -0.0956236 1.0488791 0.001583 -0.062975 0.002736 1.8582048 0.2010138 3.5243690 40.7099715 1.2706028 45.8897386 14.8803030
1.7697853 -0.0545004 1.0827724 0.012208 -0.047962 0.002354 0.2149657 0.0823097 0.5572994 32.8426641 4.9141740 47.9705937 16.2759717
1.6775997 -0.0177977 1.1057807 0.021330 -0.032972 0.001413 -0.4163690 -0.3356736 -1.5267532 25.6795063 7.8913175 48.9168388 17.6150310
1.5799168 0.0143742 1.1193940 0.029015 -0.019016 0.000061 -0.4949206 -0.7666325 -2.7444754 19.3795601 10.3571075 49.1361217 18.8275279
1.4774667 0.0420486 1.1251234 0.035200 -0.006492 -0.001536 -0.3427515 -1.0861777 -3.3002569 14.0031055 12.3345139 48.9226391 19.9323529
2.1130912 -0.2466868 0.7107695 -0.038942 -0.112195 0.000307 25.3633476 -8.7838127 5.7162937 73.0677010 -13.9652006 10.7433004 9.4952243
2.0972982 -0.1979204 0.7976217 -0.024506 -0.110285 0.001218 23.0251850 -4.9957855 10.5062533 70.6562324 -8.8183588 20.9366525 9.7439559
2.0586899 -0.1484568 0.8767803 -0.010296 -0.103082 0.002432 16.7567233 -1.3886308 11.9183709 65.0116562 -3.7005235 29.7557841 10.7533191
2.0007328 -0.1006126 0.9447421 0.002878 -0.091528 0.003440 9.8110724 0.6853904 9.9381435 57.1857252 1.0835698 36.6933739 12.0173385
1.9275764 -0.0560950 0.9998474 0.014561 -0.076957 0.003865 4.3364371 1.1261691 6.0449993 48.3060760 5.2652941 41.5465806 13.6637549
1.8431167 -0.0158918 1.0420233 0.024609 -0.060924 0.003541 1.1403345 0.5879485 2.1755928 39.4172004 8.7879362 44.5753561 15.1716025
1.7504413 0.0195918 1.0722335 0.033077 -0.044662 0.002489 -0.3148474 -0.2801473 -0.8354870 31.1663470 11.6033859 46.1820685 16.7753448
1.6516679 0.0503138 1.0919583 0.040009 -0.029260 0.000931 -0.6729046 -1.0042828 -2.5865114 23.9029738 13.8750279 46.8566340 18.0714636
1.5480130 0.0763965 1.1028172 0.045502 -0.015296 -0.000941 -0.5831185 -1.5222934 -3.5204947 17.6731287 15.6263713 46.9250379 19.4104755
2.1327461 -0.1527748 0.7118629 -0.009767 -0.119016 0.001018 30.6715818 -2.4540950 6.7119387 75.6478149 -4.1229562 10.8024041 8.8509488
2.1048393 -0.1038108 0.7978592 0.004809 -0.113606 0.002503 24.2462650 1.2709782 10.8700064 71.3249438 0.8789090 20.7575169 9.6360430
2.0547950 -0.0567089 0.8745088 0.018035 -0.103128 0.003860 15.2977158 3.0844825 10.8184464 64.0378899 5.5728718 29.1221717 10.9854507
1.9868011 -0.0132205 0.9389268 0.029361 -0.088893 0.004663 7.4683733 2.8692645 7.6173778 55.0237340 9.6590708 35.4169081 12.6421703
1.9052299 0.0256671 0.9901093 0.038820 -0.072543 0.004529 2.4101799 1.5053974 3.4311393 45.4873713 13.0112090 39.6923336 14.3645204
1.8138219 0.0595953 1.0284839 0.046389 -0.055487 0.003559 -0.0508208 -0.0489964 -0.1007019 36.4418239 15.6218420 42.2738625 16.0446355
1.7153384 0.0885933 1.0553214 0.052427 -0.039058 0.001910 -0.8599975 -1.2743808 -2.4225714 28.2984859 17.6377582 43.6227222 17.5767028
1.6115553 0.1128682 1.0722522 0.056945 -0.023978 -0.000126 -0.8593752 -2.0253745 -3.6191538 21.3240657 19.1580567 44.1680046 18.9402112
2.1282081 -0.0568119 0.7110032 0.020726 -0.119010 0.001657 28.1903916 5.0008669 6.1399429 74.3692827 5.6440692 10.5551487 9.1312505
2.0889276 -0.0108044 0.7944109 0.034049 -0.110356 0.003407 19.2834914 6.2236934 8.7080777 68.3830452 10.1971346 20.0166862 10.2497219
2.0291219 0.0313493 0.8673402 0.045132 -0.097334 0.004667 10.1726031 5.0721518 7.3378818 59.9912358 14.1359233 27.7006845 11.9163638
1.9532002 0.0686848 0.9275851 0.053873 -0.081456 0.004996 3.7108555 2.6962362 3.9143852 50.5141246 17.2965688 33.3458369 13.6133692
1.8653517 0.1008920 0.9746826 0.060554 -0.064451 0.004341 0.2017942 0.2100824 0.3019355 41.0321102 19.6880872 37.0550248 15.4537551
1.7689620 0.1280642 1.0094082 0.065520 -0.047570 0.002795 -1.0637922 -1.5995110 -2.2605209 32.3483751 21.4463581 39.3006447 16.9932149
1.6664263 0.1504740 1.0332196 0.069070 -0.031872 0.000722 -1.2096531 -2.7096667 -3.7556874 24.7481576 22.6978916 40.4971555 18.5435727
2.1002499 0.0348742 0.7083230 0.049588 -0.112371 0.002009 19.4651712 8.6721718 4.3217877 69.5472318 14.7324153 10.0426610 10.2599412
2.0515341 0.0755497 0.7877847 0.060560 -0.101383 0.003782 11.0651438 6.8057077 5.1566815 62.4986174 18.5040321 18.7607671 11.6864500
1.9842791 0.1112807 0.8561881 0.068945 -0.087100 0.004700 4.2381106 3.5292203 3.1973975 53.6853198 21.4950082 25.6464334 13.3737733
1.9026850 0.1418050 0.9118988 0.074883 -0.070900 0.004547 0.2300060 0.2596097 0.2576750 44.4117611 23.6681852 30.5967256 15.1097443
1.8105736 0.1672590 0.9548485 0.078989 -0.054332 0.003321 -1.3820020 -2.1474748 -2.2374277 35.5556807 25.1816166 33.9068270 16.7677564
1.7109630 0.1879505 0.9860597 0.081518 -0.038512 0.001408 -1.5951600 -3.5170489 -3.7581267 27.6934428 26.2181853 35.9646593 18.2826549
2.0522152 0.1172911 0.7042187 0.074439 -0.100670 0.002048 9.3926909 6.9928372 2.1762460 62.0764552 22.4877606 9.2870136 11.9631199
1.9964391 0.1514899 0.7788214 0.082645 -0.088593 0.003503 3.6613443 3.4885525 1.8034304 54.7113856 25.2858238 17.1637109 13.3354956
1.9239250 0.1805167 0.8421820 0.088235 -0.074146 0.003991 -0.1571179 -0.1939154 -0.1271037 46.2501357 27.2806517 23.2657032 15.0249995
1.8385124 0.2045391 0.8930778 0.091655 -0.058645 0.003330 -1.7827203 -2.9117349 -2.1787586 37.7898513 28.6340596 27.6609755 16.5570257
1.7437187 0.2238559 0.9317624 0.093526 -0.043414 0.001769 -2.0416051 -4.5516936 -3.6859623 29.9021802 29.4677353 30.6076818 18.1323809
1.9887112 0.1876958 0.6991832 0.094106 -0.086165 0.001833 1.9187451 2.1066114 0.4747325 53.3283604 28.5164744 8.3799750 13.8874617
1.9279329 0.2154114 0.7683625 0.099697 -0.074144 0.002883 -0.9921493 -1.3552829 -0.5288291 46.2619746 30.4009076 15.3536508 15.2902917
1.8517059 0.2383371 0.8262527 0.103066 -0.060504 0.002796 -2.3375885 -4.0803159 -2.0787843 38.6089724 31.6553013 20.7453964 16.7441917
1.7637038 0.2567412 0.8719639 0.104462 -0.046351 0.001718 -2.4828158 -5.7253754 -3.4022435 31.1855843 32.3727915 24.6300057 18.1791971
1.9142939 0.2454559 0.6936388 0.108613 -0.070948 0.001312 -1.9990325 -3.0716501 -0.5401211 44.4900219 32.8274363 7.4808915 15.7799161
1.8497782 0.2674567 0.7569620 0.112019 -0.059611 0.001794 -2.8672894 -5.4419123 -1.6921762 38.1777395 34.0216403 13.6390047 16.9474189
1.7705725 0.2853566 0.8087932 0.113553 -0.047238 0.001343 -2.8605610 -6.9620230 -2.8650492 31.5106057 34.7598368 18.3128012 18.3424856
1.8327114 0.2913715 0.6878278 0.118685 -0.056521 0.000858 -3.2836159 -6.9134396 -0.9882608 36.3623501 35.8520795 6.5628558 17.5574270
1.7646678 0.3088448 0.7445858 0.120467 -0.046229 0.000775 -3.1268361 -8.1878254 -2.0840187 30.7938317 36.4775551 11.8537686 18.6799067
1.7466311 0.3269463 0.6815738 0.124920 -0.043451 0.000053 -3.0522079 -8.7806195 -1.0369741 29.3475949 37.7867929 5.8073813 19.0580054
1.7153534 0.3405646 0.6212295 0.127270 -0.038882 -0.000003 -3.3562638 -10.9912134 -0.0000049 26.8014020 37.9200741 0.0012589 19.6581580
1.7996379 0.3105417 0.6212294 0.122631 -0.051123 0.000002 -3.2373336 -7.7695698 -0.0000028 33.4753063 37.0096421 -0.0010213 18.1019393
1.8827964 0.2705042 0.6212294 0.114730 -0.064902 -0.000000 -2.8574465 -5.0534464 -0.0000013 41.1428624 34.6059286 0.0000522 16.5727310
1.9611101 0.2190233 0.6212293 0.102749 -0.080067 0.000000 -0.1823420 -0.2341037 -0.0000000 49.8076423 31.0645724 0.0000692 14.6261254
2.0308914 0.1549507 0.6212293 0.085685 -0.095291 0.000000 5.8268864 5.2418031 0.0000001 58.8662527 25.8561440 -0.0000249 12.7312458
2.0876899 0.0781273 0.6212292 0.063302 -0.108903 0.000001 15.5962835 9.0704666 -0.0000017 67.3457012 18.9101550 -0.0003297 10.7735175
2.1266149 -0.0098185 0.6212292 0.036058 -0.118540 -0.000000 26.3103549 8.0091710 -0.0000047 73.7508880 10.3494848 0.0001157 9.3584509
2.1433639 -0.1049210 0.6212292 0.005751 -0.122059 0.000000 32.9048735 1.5567006 -0.0000070 76.9554509 0.7806556 -0.0000064 8.5215866
2.1356725 -0.2012331 0.6212292 -0.024759 -0.118523 0.000001 31.1815650 -6.5089477 -0.0000067 76.3161281 -9.1688958 -0.0003714 8.8014238
2.1043080 -0.2922674 0.6212292 -0.052555 -0.108620 0.000001 22.4899815 -10.8780327 -0.0000041 71.8214189 -18.8341490 -0.0000386 9.8147507
2.0527972 -0.3727948 0.6212292 -0.075633 -0.094324 -0.000001 11.7779858 -9.4422144 -0.0000012 64.0730230 -27.2935957 0.0002821 11.5645285
1.9861264 -0.4399027 0.6212293 -0.093311 -0.077980 0.000002 3.6341916 -4.3478184 0.0000001 54.5039833 -33.8400095 -0.0007729 13.4069054
1.9093701 -0.4929113 0.6212293 -0.106078 -0.061638 0.000000 -0.7649991 1.3163060 -0.0000002 44.6900609 -38.3023876 -0.0002576 15.3811116
1.8269584 -0.5326528 0.6212294 -0.114696 -0.046502 -0.000002 -2.2016027 5.4288091 -0.0000014 35.5292075 -40.9974553 0.0011645 16.9771456
1.7432014 -0.5606367 0.6212294 -0.120538 -0.033020 0.000005 -2.4787311 9.0441493 -0.0000031 27.6600892 -42.5976616 -0.0031159 18.5904208
1.6848663 -0.5716222 0.5646722 -0.121625 -0.025669 0.000496 -2.5761366 12.2267373 1.2308334 22.6408757 -41.1755907 -5.1017285 19.3936200
1.7015453 -0.5578540 0.5032169 -0.118370 -0.028298 0.000976 -2.0179407 8.5066232 1.9614154 24.5689208 -41.7115901 -11.7499003 18.9520235
1.7090876 -0.5368075 0.4394589 -0.113186 -0.030008 0.001484 -1.8940136 7.2772959 2.7397590 25.3116545 -39.9513477 -18.3083039 18.7762875
1.7056029 -0.5088526 0.3762886 -0.106566 -0.030555 0.001682 -1.6608681 5.9698790 3.2530041 25.4258709 -37.4936148 -24.8221755 18.4784255
1.6901965 -0.4747678 0.3161744 -0.098001 -0.029507 0.001581 -1.3992885 4.8382193 3.5926407 24.5298699 -34.2754253 -30.8781910 18.5115289
1.6627804 -0.4357811 0.2613203 -0.088279 -0.026817 0.001130 -1.0894608 3.7389101 3.6614830 22.8867717 -30.5881127 -36.2736106 18.4852420
1.6239504 -0.3934024 0.2134355 -0.077490 -0.022405 0.000412 -0.8125777 2.8756032 3.6519079 20.5099800 -26.6074179 -40.7549982 18.7727388
1.5748053 -0.3492204 0.1736039 -0.066280 -0.016561 -0.000401 -0.5552265 2.1349029 3.4973849 17.7352782 -22.5564796 -44.3552276 18.9996645
1.5167305 -0.3047093 0.1422637 -0.054839 -0.009607 -0.001142 -0.3512944 1.5979135 3.3936330 14.6543032 -18.5954648 -47.0029852 19.5200727
1.4512023 -0.2611017 0.1192879 -0.043783 -0.002152 -0.001644 -0.1767073 1.1404084 3.1922010 11.6119292 -14.8388233 -48.9204968 19.8795919
1.3796513 -0.2193332 0.1041303 -0.033167 0.005378 -0.001849 -0.0418362 0.8125669 3.0966177 8.6363339 -11.3665521 -50.1385809 20.5036363
1.3034039 -0.1800538 0.0959679 -0.023442 0.012432 -0.001727 0.0655551 0.5306339 2.9216600 5.9399121 -8.1974414 -50.9127845 20.9097881
1.2237261 -0.1436838 0.0938250 -0.014608 0.018641 -0.001303 0.1550063 0.3284916 2.9410350 3.5197478 -5.3325927 -51.2298969 21.5244653
1.1419427 -0.1104814 0.0966348 -0.006912 0.023766 -0.000584 0.2101490 0.1374011 2.7126809 1.4942838 -2.7870947 -51.3919177 21.8660417
1.0602063 -0.0807965 0.1032084 -0.000245 0.027644 0.000227 0.4925486 -0.0233048 5.0559481 -0.2648670 -0.5290895 -50.8983872 22.4513267
1.7466311 0.3269463 0.5608851 0.124918 -0.043451 -0.000055 -3.0522052 -8.7806132 1.0369660 29.3488073 37.7864856 -5.8072448 19.0581130
1.7646677 0.3088450 0.4978730 0.120472 -0.046230 -0.000774 -3.1268382 -8.1878339 2.0840142 30.7919917 36.4781564 -11.8540670 18.6801415
1.7705724 0.2853567 0.4336656 0.113549 -0.047238 -0.001347 -2.8605511 -6.9620027 2.8650349 31.5123067 34.7599642 -18.3115082 18.3427713
1.7637037 0.2567414 0.3704948 0.104465 -0.046351 -0.001716 -2.4828207 -5.7253909 3.4022473 31.1847115 32.3725443 -24.6310928 18.1789537
1.7437186 0.2238562 0.3106963 0.093525 -0.043417 -0.001772 -2.0415931 -4.5516712 3.6859391 29.9026804 29.4690944 -30.6062054 18.1336837
1.7109628 0.1879508 0.2563990 0.081519 -0.038511 -0.001407 -1.5951582 -3.5170489 3.7581219 27.6932471 26.2175411 -35.9655359 18.2817043
1.6664261 0.1504743 0.2092390 0.069068 -0.031873 -0.000723 -1.2096455 -2.7096531 3.7556638 24.7493299 22.6985822 -40.4966348 18.5454526
1.6115551 0.1128684 0.1702064 0.056946 -0.023980 0.000125 -0.8593684 -2.0253614 3.6191258 21.3238457 19.1578987 -44.1685084 18.9395624
1.5480127 0.0763967 0.1396414 0.045499 -0.015298 0.000941 -0.5830870 -1.5222135 3.5203052 17.6748951 15.6284831 -46.9242703 19.4120370
1.4774665 0.0420488 0.1173351 0.035201 -0.006485 0.001538 -0.3427990 -1.0863304 3.3007162 14.0027692 12.3292687 -48.9243301 19.9330255
1.4014415 0.0105151 0.1026891 0.025964 0.002122 0.001839 -0.1600312 -0.7707617 3.1721627 10.5181889 9.1891745 -50.2152428 20.4636908
1.3212377 -0.0177801 0.0948647 0.017936 0.010002 0.001797 -0.0127924 -0.4982661 2.9392509 7.2909485 6.3520955 -51.0305905 20.9968707
1.2378536 -0.0426199 0.0929187 0.010896 0.017000 0.001408 0.0990640 -0.2983145 2.8186608 4.4297311 3.7317577 -51.3767061 21.5093025
1.1516660 -0.0638253 0.0959105 0.004863 0.022804 0.000779 0.1565444 -0.1142398 2.2776012 1.8998152 1.4557972 -51.8289213 21.9652633
1.8327113 0.2913716 0.5546310 0.118686 -0.056521 -0.000859 -3.2836243 -6.9134586 0.9882590 36.3620016 35.8522454 -6.5617429 17.5570882
1.8497781 0.2674568 0.4854968 0.112017 -0.059610 -0.001792 -2.8672897 -5.4419149 1.6921736 38.1784451 34.0210111 -13.6398312 16.9474633
1.8517058 0.2383372 0.4162060 0.103070 -0.060504 -0.002794 -2.3376064 -4.0803497 2.0787987 38.6077364 31.6555580 -20.7455788 16.7438061
1.8385123 0.2045392 0.3493809 0.091653 -0.058644 -0.003331 -1.7827234 -2.9117422 2.1787616 37.7908264 28.6337736 -27.6605016 16.5569731
1.8105734 0.1672592 0.2876101 0.078993 -0.054330 -0.003318 -1.3820259 -2.1475140 2.2374663 35.5547248 25.1805139 -33.9079343 16.7670120
1.7689618 0.1280644 0.2330504 0.065521 -0.047572 -0.002797 -1.0637966 -1.5995196 2.2605307 32.3484293 21.4475313 -39.2996368 16.9935953
1.7153382 0.0885935 0.1871372 0.052431 -0.039055 -0.001908 -0.8600202 -1.2744162 2.4226361 28.2975545 17.6363628 -43.6232578 17.5749035
1.6516677 0.0503140 0.1505002 0.040012 -0.029259 -0.000930 -0.6729097 -1.0042921 2.5865323 23.9024164 13.8751957 -46.8565108 18.0724284
1.5799166 0.0143744 0.1230645 0.029018 -0.019017 -0.000062 -0.4949487 -0.7666775 2.7446327 19.3783236 10.3573566 -49.1356651 18.8249990
1.5018200 -0.0184320 0.1042436 0.019236 -0.008755 0.000507 -0.3127660 -0.5306550 2.7885320 15.0694336 7.0660527 -50.5765726 19.4068684
1.4187210 -0.0476250 0.0931556 0.010977 0.000856 0.000700 -0.1508579 -0.3256144 2.8175702 11.0162866 4.1334253 -51.3674051 20.1824339
1.3314084 -0.0729347 0.0887995 0.003764 0.009641 0.000517 -0.0081810 -0.1384273 2.6837613 7.4504669 1.4851698 -51.7132230 20.6986204
1.2397787 -0.0941069 0.0902133 -0.002074 0.017259 0.000039 0.1038430 0.0096727 2.5719385 4.2182468 -0.8122666 -51.8047882 21.4350343
1.9142939 0.2454559 0.5488199 0.108613 -0.070949 -0.001312 -1.9990243 -3.0716380 0.5401176 44.4901138 32.8275247 -7.4810369 15.7802319
1.9279329 0.2154115 0.4740961 0.099698 -0.074145 -0.002884 -0.9921512 -1.3552860 0.5288298 46.2618862 30.4012555 -15.3530491 15.2902128
1.9239249 0.1805168 0.4002765 0.088234 -0.074145 -0.003991 -0.1571117 -0.1939078 0.1270987 46.2506744 27.2804541 -23.2658177 15.0255358
1.9026848 0.1418051 0.3305598 0.074886 -0.070902 -0.004547 0.2300032 0.2596067 -0.2576719 44.4110719 23.6689430 -30.5966990 15.1097815
1.8653515 0.1008921 0.2677759 0.060551 -0.064452 -0.004343 0.2018081 0.2100971 -0.3019564 41.0333974 19.6884171 -37.0543237 15.4542313
1.8138217 0.0595955 0.2139746 0.046391 -0.055486 -0.003557 -0.0508173 -0.0489930 0.1006950 36.4411687 15.6210066 -42.2748219 16.0450652
1.7504411 0.0195919 0.1702250 0.033073 -0.044666 -0.002491 -0.3148278 -0.2801303 0.8354356 31.1680765 11.6052363 -46.1811711 16.7762285
1.6775995 -0.0177976 0.1366777 0.021330 -0.032971 -0.001413 -0.4163594 -0.3356664 1.5267188 25.6796565 7.8900183 -48.9173647 17.6149857
1.5973935 -0.0516725 0.1128027 0.011162 -0.021036 -0.000603 -0.3981806 -0.2743893 2.1447569 20.3236169 4.4718490 -50.5857968 18.4641283
1.5114091 -0.0814971 0.0976620 0.002620 -0.009591 -0.000194 -0.2781378 -0.1302126 2.4897838 15.3564541 1.4696685 -51.4603221 19.2955079
1.4205731 -0.1069747 0.0901570 -0.004429 0.001076 -0.000214 -0.1301352 0.0307881 2.6907081 10.8669665 -1.1922028 -51.7555944 20.1031992
1.3249872 -0.1278595 0.0891977 -0.010163 0.010502 -0.000615 0.0166965 0.1803935 2.7407349 6.9361467 -3.4399025 -51.6577516 20.8357686
1.9887111 0.1876959 0.5432754 0.094106 -0.086164 -0.001832 1.9187276 2.1065926 -0.4747278 53.3282430 28.5162849 -8.3802166 13.8871946
1.9964390 0.1514900 0.4636371 0.082645 -0.088593 -0.003502 3.6613354 3.4885455 -1.8034261 54.7112599 25.2857551 -17.1639724 13.3354909
1.9842790 0.1112809 0.3862704 0.068946 -0.087100 -0.004700 4.2380803 3.5291974 -3.1973755 53.6852687 21.4948338 -25.6461666 13.3731766
1.9532000 0.0686850 0.3148734 0.053874 -0.081454 -0.004994 3.7108419 2.6962287 -3.9143724 50.5139190 17.2958950 -33.3463877 13.6135915
1.9052297 0.0256673 0.2523491 0.038822 -0.072544 -0.004529 2.4101442 1.5053768 -3.4310901 45.4866771 13.0115453 -39.6921734 14.3636045
1.8431166 -0.0158917 0.2004351 0.024609 -0.060924 -0.003541 1.1403213 0.5879425 -2.1755688 39.4173462 8.7878929 -44.5751447 15.1712816
1.7697850 -0.0545003 0.1596860 0.012214 -0.047959 -0.002352 0.2149311 0.0822965 -0.5572099 32.8405667 4.9128671 -47.9710450 16.2753460
1.6878589 -0.0891563 0.1297216 0.001571 -0.034382 -0.001389 -0.2283785 -0.0445697 0.8345453 26.3731284 1.4033663 -50.0536829 17.2258641
1.5993608 -0.1192891 0.1095867 -0.007006 -0.021120 -0.000780 -0.3432384 0.0423291 1.9016225 20.2722911 -1.6256597 -51.1240539 18.3570271
1.5055768 -0.1446142 0.0980647 -0.014027 -0.008648 -0.000681 -0.2502788 0.2085991 2.4587627 14.8502973 -4.2260875 -51.4786483 19.2132028
1.4070092 -0.1649544 0.0939103 -0.019387 0.002586 -0.001018 -0.0979402 0.3877397 2.8205470 10.0485130 -6.3848698 -51.3273819 20.2040428
2.0522152 0.1172912 0.5382398 0.074439 -0.100671 -0.002049 9.3927028 6.9928476 -2.1762498 62.0766567 22.4879528 -9.2864584 11.9633612
2.0515340 0.0755498 0.4546737 0.060561 -0.101383 -0.003780 11.0651387 6.8057077 -5.1566820 62.4984697 18.5040451 -18.7612360 11.6866536
2.0291218 0.0313494 0.3751183 0.045131 -0.097335 -0.004668 10.1726087 5.0721582 -7.3378900 59.9915554 14.1364708 -27.7002357 11.9166638
1.9868010 -0.0132205 0.3035316 0.029361 -0.088893 -0.004663 7.4683720 2.8692669 -7.6173811 55.0239442 9.6592281 -35.4168358 12.6422351
1.9275762 -0.0560949 0.2426110 0.014561 -0.076956 -0.003865 4.3364514 1.1261743 -6.0450230 48.3064337 5.2649396 -41.5467232 13.6648046
1.8549312 -0.0956236 0.1935793 0.001582 -0.062978 -0.002737 1.8582168 0.2010155 -3.5243938 40.7104840 1.2714803 -45.8896911 14.8803915
1.7721387 -0.1307220 0.1563995 -0.009203 -0.047967 -0.001663 0.3880517 -0.0387024 -1.0200061 33.0103877 -2.2790794 -48.6574147 16.1461993
1.6818201 -0.1608123 0.1301964 -0.017859 -0.033111 -0.000966 -0.2370301 0.1010606 0.9037936 25.7489631 -5.2483034 -50.1174725 17.3777010