# volRat = 0.650000
# viscRat = 5.000000
# alpha = 0.750000
# shRate = 2.598000
# tnum = 7000
# time = 7.217499
VARIABLES = X, Y, Z, U, V, W, F_B0, F_B1, F_B2, F_0, F_1, F_2, T
ZONE N=2562 E=5120 F=FEPOINT ET=TRIANGLE
1.6404595 0.3598508 0.6212298 0.128502 -0.030709 -0.000001 3.1017814 13.0010573 0.0000038 23.9929991 48.3188917 0.0006073 20.5121252
-1.6581593 0.5786667 0.6212298 0.124352 0.022734 -0.000004 -2.6192016 14.3335250 0.0000046 -22.3664304 52.3593098 0.0020029 19.6432594
1.6581602 -0.5786636 0.6212298 -0.124355 -0.022735 0.000004 2.6191829 -14.3334584 0.0000046 22.3677335 -52.3587256 -0.0020689 19.6418141
-1.6404593 -0.3598480 0.6212298 -0.128505 0.030710 0.000001 -3.1017980 -13.0010822 0.0000038 -23.9911818 -48.3193297 -0.0008230 20.5135577
0.9812438 -0.0479345 1.1295243 0.006535 0.030001 -0.001103 -1.8646030 1.0794762 17.3097978 -2.3247363 2.5393476 59.3579361 22.6498228
0.9812437 -0.0479345 0.1129350 0.006523 0.029987 0.000951 -1.8462669 1.0688955 -17.1396374 -2.3082418 2.5480122 -59.1902517 22.6464062
-0.9812436 0.0479354 1.1295246 -0.006553 -0.029962 -0.001242 1.8839838 -1.0907489 17.4897627 2.3457369 -2.5751748 59.5315498 22.6486945
-0.9812435 0.0479354 0.1129349 -0.006564 -0.029977 0.001360 1.8985258 -1.0991766 -17.6248282 2.3598796 -2.5626527 -59.6647710 22.6520648
-0.0485931 0.3439973 0.8393297 0.073732 -0.007217 0.002310 -6.9030967 -71.9692650 -41.9517949 -2.1986480 -19.9997242 -7.5040328 25.6485348
0.0485932 -0.3439938 0.8393280 -0.073498 0.008925 0.001423 5.8049930 60.5215310 -35.2780028 1.0897532 8.6460417 -1.1181015 25.5847470
-0.0485932 0.3439965 0.4031304 0.073537 -0.008856 -0.001451 -5.8100959 -60.5712056 35.3067583 -1.0914536 -8.6737806 1.1876001 25.5952904
0.0485932 -0.3439948 0.4031311 -0.073701 0.007203 -0.002322 6.9098567 72.0427597 41.9946534 2.2047353 20.0876019 7.5122047 25.6404979
1.6635989 0.3525953 0.6730403 0.128643 -0.033319 -0.000114 -3.3671497 -13.0138711 -1.1817245 23.1495866 37.4974762 4.3777266 20.3367139
1.6807051 0.3396767 0.7296105 0.125690 -0.035338 -0.000039 -2.6948106 -9.5954864 -1.9913247 24.8815771 38.1955247 10.1218054 19.9014335
1.6889894 0.3213048 0.7887599 0.120735 -0.036254 0.000070 -2.5739362 -8.5891317 -2.8979532 25.4732658 36.8530898 15.8355529 19.7184289
1.6866115 0.2978353 0.8480136 0.113415 -0.035710 0.000198 -2.3156428 -7.3847737 -3.5802172 25.5586598 35.1023712 21.6589380 19.4153050
1.6726459 0.2698799 0.9052237 0.104555 -0.033661 0.000115 -2.0209531 -6.3009460 -4.1178331 24.7512387 32.7348562 27.2446171 19.4181288
1.6469023 0.2383834 0.9583844 0.094176 -0.029930 -0.000238 -1.6429206 -5.1439543 -4.3654829 23.2825043 29.9735903 32.4487044 19.3333089
1.6098397 0.2045244 1.0058327 0.083166 -0.024771 -0.000811 -1.2599670 -4.0948282 -4.4110583 21.1131920 26.9516507 37.0577827 19.5612952
1.5624288 0.1695712 1.0463882 0.071786 -0.018334 -0.001548 -0.8962032 -3.1589646 -4.2624084 18.5143516 23.7423413 40.9770646 19.7021248
1.5059720 0.1347296 1.0794164 0.060847 -0.011147 -0.002275 -0.5930969 -2.4200465 -4.0656481 15.5505292 20.5079377 44.1101070 20.1211952
1.4419222 0.1010288 1.1048008 0.050429 -0.003513 -0.002898 -0.3420997 -1.8132191 -3.7947964 12.5339595 17.2966751 46.5315540 20.3888276
1.3717419 0.0692586 1.1228447 0.041010 0.004007 -0.003258 -0.1473541 -1.3445207 -3.5318531 9.5205696 14.2687225 48.3345409 20.9153698
1.2968290 0.0399606 1.1341536 0.032423 0.011115 -0.003322 0.0006360 -0.9807974 -3.2864758 6.7257859 11.3644693 49.5742827 21.2159046
1.2185401 0.0134597 1.1395245 0.024864 0.017415 -0.003115 0.1118185 -0.7045324 -3.0991436 4.1365946 8.7134328 50.4300894 21.7483356
1.1382912 -0.0100919 1.1398783 0.018044 0.022800 -0.002564 0.2193075 -0.5452028 -3.3066673 1.9422010 6.1572465 50.6313505 22.0158168
1.0582893 -0.0305525 1.1362379 0.012106 0.026926 -0.001759 0.5361617 -0.6308563 -5.8528677 0.0165361 3.8175374 49.9787315 22.5051729
1.7699407 -0.5485614 0.6867675 -0.117614 -0.037585 -0.001012 -2.3042251 7.2380188 -0.9494355 30.0823903 -41.5717428 6.7845519 18.0416634
1.7871746 -0.5288899 0.7547420 -0.112764 -0.040929 -0.001505 -2.2293795 6.2086413 -1.7620022 31.8849927 -40.1341443 13.8531404 17.6577307
1.7917678 -0.5018861 0.8233094 -0.106133 -0.042819 -0.001997 -1.9154524 4.8533968 -2.2418123 32.6623746 -37.7084259 21.2032132 17.3326039
1.7830829 -0.4679890 0.8898440 -0.097568 -0.042895 -0.002164 -1.5424426 3.6326880 -2.4481511 32.1925276 -34.4370518 28.1847398 17.2157392
1.7608972 -0.4283477 0.9517243 -0.087522 -0.040942 -0.001878 -1.1955195 2.6702370 -2.4906218 30.6183833 -30.5102438 34.4874256 17.2301615
1.7257513 -0.3845707 1.0067093 -0.076203 -0.036863 -0.001280 -0.9155808 1.9792536 -2.4916853 28.0229487 -26.2078658 39.8086932 17.4674137
1.6788402 -0.3384579 1.0532383 -0.064255 -0.030871 -0.000495 -0.7038362 1.5054550 -2.5400052 24.7252657 -21.7458971 44.0528213 17.8449066
1.6217656 -0.2917369 1.0905390 -0.052078 -0.023308 0.000282 -0.5302981 1.1525468 -2.6294322 21.0082581 -17.3782992 47.1604627 18.3503297
1.5562629 -0.2458714 1.1185606 -0.040167 -0.014798 0.000846 -0.3747395 0.8597684 -2.7272033 17.2015980 -13.2494229 49.3276941 18.9362963
1.4839885 -0.2019757 1.1378054 -0.028791 -0.005917 0.001091 -0.2280930 0.5939334 -2.7754231 13.4723983 -9.4684467 50.6584348 19.5808029
1.4063943 -0.1608143 1.1491286 -0.018362 0.002645 0.000967 -0.0976543 0.3614441 -2.8101549 10.0412169 -6.0276601 51.3905233 20.2137464
1.3246720 -0.1228597 1.1535748 -0.008930 0.010499 0.000516 0.0156063 0.1514796 -2.7387857 6.9505435 -2.9922833 51.6944335 20.8375182
1.2397017 -0.0883621 1.1522450 -0.000653 0.017224 -0.000184 0.1026491 -0.0215193 -2.5833169 4.2453284 -0.3026322 51.8050599 21.4463917
1.1517560 -0.0574920 1.1462106 0.006431 0.022711 -0.000997 0.1544504 -0.1447583 -2.2730745 1.9303961 2.0386592 51.8172194 21.9770706
1.8552352 -0.5149290 0.6930859 -0.110536 -0.051672 -0.000883 -1.9489349 4.1811130 -0.6658031 38.5281111 -39.7721825 7.7034377 16.4947621
1.8711993 -0.4886278 0.7670130 -0.104176 -0.055646 -0.001768 -1.3048547 2.4704461 -0.8604915 40.5427713 -37.3612445 15.8892823 15.8990547
1.8713549 -0.4551843 0.8401801 -0.095518 -0.057188 -0.002113 -0.7148370 1.2200401 -0.7030971 40.8626125 -34.1190568 23.8749979 15.7316122
1.8558096 -0.4154383 0.9095816 -0.085346 -0.056419 -0.002074 -0.2975693 0.4648458 -0.3996652 39.6513872 -30.0180036 31.3052235 15.6187925
1.8251710 -0.3709807 0.9724286 -0.073495 -0.052851 -0.001646 -0.1725262 0.2494315 -0.3058851 36.8909786 -25.4732724 37.6934851 15.9433721
1.7807947 -0.3237703 1.0265951 -0.061117 -0.046884 -0.000881 -0.2119649 0.2855214 -0.4926776 33.1085347 -20.6849580 42.8139902 16.2933810
1.7245805 -0.2757589 1.0708709 -0.048339 -0.038709 -0.000088 -0.3372015 0.4232436 -1.0396866 28.5664952 -15.9911257 46.5660180 17.0087332
1.6586276 -0.2286173 1.1049577 -0.035924 -0.029139 0.000526 -0.3727283 0.4306058 -1.5714075 23.8538361 -11.5801974 49.1584307 17.6501339
1.5849201 -0.1835993 1.1292732 -0.024032 -0.018826 0.000784 -0.3512226 0.3578821 -2.1424395 19.1569518 -7.5580823 50.7013982 18.5274559
1.5051197 -0.1415378 1.1447011 -0.013255 -0.008605 0.000662 -0.2497710 0.1922631 -2.4558816 14.8403121 -3.9597769 51.5088396 19.2172975
1.4204432 -0.1029165 1.1523520 -0.003397 0.001063 0.000155 -0.1311295 0.0078465 -2.6930067 10.8746184 -0.8335758 51.7622885 20.1073517
1.3315341 -0.0679804 1.1533955 0.005017 0.009598 -0.000626 -0.0098186 -0.1668930 -2.6901694 7.4746698 1.9147792 51.6911063 20.7067156
1.2381506 -0.0369013 1.1489293 0.012330 0.016902 -0.001578 0.0969810 -0.3330735 -2.8199305 4.4641735 4.2417025 51.3303323 21.5141045
1.9357908 -0.4692209 0.6987059 -0.100259 -0.067400 -0.000982 0.4956778 -0.7394845 0.1456355 47.9817572 -36.2652712 8.7106483 14.6858888
1.9478120 -0.4360249 0.7777502 -0.091699 -0.071227 -0.001541 1.7846794 -2.3198105 1.0230959 49.7455715 -33.0266736 17.6943139 14.2311324
1.9413989 -0.3962007 0.8546485 -0.081120 -0.072050 -0.001780 2.4805236 -2.8455874 2.1419191 49.3021366 -28.8326793 26.3653574 14.0563651
1.9172074 -0.3512071 0.9258834 -0.068973 -0.069479 -0.001404 2.3830480 -2.4227336 2.8345221 46.7748653 -24.1037568 34.0034081 14.2649079
1.8767361 -0.3030892 0.9885760 -0.056029 -0.063790 -0.000691 1.6774596 -1.5017085 2.6542854 42.5799225 -19.0371688 40.2759255 14.7604080
1.8222231 -0.2540063 1.0408888 -0.042789 -0.055278 0.000108 0.8085868 -0.6222581 1.6884848 37.2598381 -14.0627578 44.9595246 15.5239727
1.7562297 -0.2058416 1.0821205 -0.029871 -0.044770 0.000718 0.1317879 -0.0819252 0.3670214 31.4958824 -9.3807203 48.1983535 16.4073151
1.6812031 -0.1600006 1.1125183 -0.017667 -0.033042 0.000971 -0.2383885 0.1002786 -0.9112729 25.7098652 -5.1782329 50.1400790 17.3855103
1.5991686 -0.1173909 1.1329569 -0.006524 -0.021114 0.000777 -0.3436501 0.0346082 -1.9040681 20.2691646 -1.4585861 51.1332239 18.3657007
1.5115642 -0.0785156 1.1446315 0.003394 -0.009637 0.000168 -0.2798949 -0.1464534 -2.4959801 15.3744101 1.7354547 51.4442127 19.3011561
1.4191399 -0.0436176 1.1488217 0.012006 0.000768 -0.000765 -0.1535382 -0.3515676 -2.8305281 11.0529809 4.4896050 51.3188786 20.1899747
1.3218239 -0.0128547 1.1467533 0.019199 0.009872 -0.001904 -0.0153653 -0.5340031 -2.9610254 7.3327519 6.7956391 50.9393557 21.0080830
2.0083210 -0.4100480 0.7037577 -0.085504 -0.083732 -0.000778 6.1256729 -6.2699876 1.6011817 57.7034613 -30.9414373 9.6142592 12.8067863
2.0136968 -0.3701688 0.7868844 -0.074648 -0.086790 -0.001115 7.8644623 -6.8157114 4.0591817 58.6881015 -26.7372350 19.3418795 12.3450858
1.9984281 -0.3248220 0.8661998 -0.062078 -0.085745 -0.000781 7.7145334 -5.6394593 6.0614200 56.8485644 -21.8827246 28.3062522 12.5244373
1.9639025 -0.2760756 0.9378425 -0.048637 -0.080850 -0.000085 6.0598884 -3.6511527 6.6230895 52.6563302 -16.6491949 35.9618843 12.9572297
1.9125974 -0.2262546 0.9990739 -0.034925 -0.072208 0.000770 3.7266557 -1.7428765 5.4688900 46.7339975 -11.5118236 41.8866728 13.8983450
1.8475752 -0.1774437 1.0485436 -0.021765 -0.060983 0.001451 1.7184874 -0.5324165 3.3586682 39.9641366 -6.6426783 46.0584354 14.8819155
1.7718703 -0.1311978 1.0861495 -0.009346 -0.047952 0.001654 0.3852597 -0.0397357 1.0137205 32.9875646 -2.3289842 48.6717646 16.1517949
1.6880394 -0.0884960 1.1126668 0.001744 -0.034430 0.001391 -0.2283324 -0.0457189 -0.8334909 26.3890536 1.4571565 50.0533936 17.2271170
1.5979321 -0.0498510 1.1293404 0.011655 -0.021136 0.000598 -0.4006688 -0.2837960 -2.1496776 20.3601277 4.6340728 50.5591741 18.4606530
1.5026215 -0.0154809 1.1375794 0.020024 -0.008880 -0.000537 -0.3170954 -0.5520550 -2.8026418 15.1185194 7.3244207 50.5150308 19.4089016
1.4024000 0.0145106 1.1387606 0.027024 0.001970 -0.001908 -0.1645784 -0.8056226 -3.1946273 10.5680342 9.5384829 50.1119547 20.4690539
2.0684302 -0.3371063 0.7079292 -0.065593 -0.099188 -0.000375 15.0744831 -9.9809435 3.6151166 66.4530067 -23.5561508 10.3420796 10.9942664
2.0645852 -0.2916355 0.7937768 -0.052624 -0.100388 -0.000082 15.8662064 -8.3211194 7.6032704 65.9897102 -18.6501993 20.4389265 10.8851110
2.0385201 -0.2426181 0.8738900 -0.038620 -0.096715 0.000655 13.4099237 -5.2850948 9.8904850 62.3998325 -13.4174135 29.5123710 11.3264129
1.9926022 -0.1924932 0.9443906 -0.024619 -0.088605 0.001679 9.1189114 -2.3518255 9.4552882 56.3500590 -8.1917214 36.8827390 12.2691662
1.9302554 -0.1435125 1.0029624 -0.011201 -0.077045 0.002425 4.8909749 -0.4921405 6.8830247 48.7964118 -3.2491969 42.3398582 13.4990710
1.8551340 -0.0973621 1.0488778 0.001079 -0.063052 0.002710 1.8694233 0.1857129 3.5442476 40.7358209 1.1014132 45.9082271 14.8778524
1.7704500 -0.0550772 1.0826199 0.012050 -0.048108 0.002353 0.2242049 0.0848345 0.5799034 32.9025502 4.8583840 47.9743876 16.2673746
1.6786226 -0.0171622 1.1053871 0.021520 -0.033158 0.001423 -0.4158493 -0.3361617 -1.5176188 25.7544496 7.9507280 48.8924107 17.6076118
1.5811923 0.0162134 1.1186766 0.029535 -0.019219 0.000062 -0.5004208 -0.7814872 -2.7523632 19.4581066 10.5246087 49.0722108 18.8236304
1.4788828 0.0450276 1.1240189 0.036016 -0.006699 -0.001563 -0.3497957 -1.1176162 -3.3204621 14.0792735 12.5984890 48.8127679 19.9334325
2.1111808 -0.2519755 0.7107724 -0.040568 -0.111646 0.000261 24.8544739 -9.0143316 5.6237663 72.8014978 -14.5357928 10.7467022 9.5639144
2.0961068 -0.2030852 0.7976364 -0.026106 -0.109946 0.001135 22.7514233 -5.2902408 10.4087012 70.5064230 -9.3668193 20.9489928 9.7834625
2.0582324 -0.1531464 0.8768128 -0.011742 -0.102970 0.002338 16.6952748 -1.6294044 11.8897645 64.9725384 -4.1860113 29.7784746 10.7670859
2.0009531 -0.1045237 0.9447718 0.001695 -0.091605 0.003365 9.8591508 0.5531434 9.9850075 57.2343038 0.6894752 36.7243701 12.0095775
1.9283751 -0.0589984 0.9998190 0.013712 -0.077165 0.003824 4.4019460 1.0883657 6.1253523 48.4099379 4.9830910 41.5785174 13.6433248
1.8443785 -0.0176385 1.0418546 0.024125 -0.061202 0.003537 1.1816799 0.5967849 2.2463194 39.5471224 8.6263237 44.5934648 15.1475534
1.7520499 0.0190774 1.0718305 0.032967 -0.044967 0.002508 -0.3014351 -0.2658796 -0.7952512 31.2990163 11.5632029 46.1713868 16.7535451
1.6535096 0.0510440 1.0912308 0.040253 -0.029554 0.000952 -0.6761964 -1.0066724 -2.5767364 24.0273572 13.9450219 46.8046924 18.0534652
1.5499720 0.0783278 1.1016922 0.046071 -0.015580 -0.000935 -0.5925921 -1.5471480 -3.5319227 17.7817505 15.8024249 46.8223057 19.4024421
2.1322196 -0.1585759 0.7118709 -0.011612 -0.118829 0.000971 30.5534296 -2.9245118 6.6945451 75.6123167 -4.7306871 10.8131499 8.8695650
2.1050698 -0.1092955 0.7978845 0.003077 -0.113651 0.002427 24.3595263 0.8991294 10.9195751 71.4017039 0.3158138 20.7828648 9.6257932
2.0557198 -0.0615319 0.8745391 0.016545 -0.103373 0.003787 15.5082493 2.8890409 10.9501546 64.2022059 5.0900327 29.1613238 10.9532024
1.9883084 -0.0171126 0.9389134 0.028204 -0.089277 0.004621 7.6539215 2.8246981 7.7820230 55.2380713 9.2857759 35.4622625 12.6001183
1.9071904 0.0228884 0.9899720 0.038040 -0.072994 0.004526 2.5210713 1.5372871 3.5713134 45.7149043 12.7602283 39.7288787 14.3203901
1.8161085 0.0580318 1.0281255 0.045996 -0.055940 0.003586 -0.0061609 -0.0058513 -0.0121226 36.6563121 15.4917121 42.2841224 16.0040555
1.7178310 0.0882786 1.0546446 0.052407 -0.039484 0.001953 -0.8545108 -1.2543645 -2.3842146 28.4866087 17.6239346 43.5896935 17.5460002
1.6141362 0.1137788 1.0711748 0.057267 -0.024362 -0.000086 -0.8695826 -2.0365536 -3.6149669 21.4807919 19.2509455 44.0811608 18.9209542
2.1292146 -0.0627522 0.7110239 0.018829 -0.119256 0.001617 28.5738451 4.6036309 6.2142728 74.5759199 5.0429940 10.5726361 9.0889634
2.0906385 -0.0162418 0.7944479 0.032353 -0.110801 0.003358 19.7358965 6.0391233 8.8862351 68.6795478 9.6604595 20.0530380 10.1874943
2.0314141 0.0267194 0.8673537 0.043746 -0.097918 0.004636 10.5382871 5.0714716 7.5673942 60.3339739 13.6983791 27.7520413 11.8448990
1.9559315 0.0650789 0.9274991 0.052855 -0.082092 0.004999 3.9312437 2.7849146 4.1209195 50.8592116 16.9736857 33.3973548 13.5409923
1.8683847 0.0984411 0.9743986 0.059924 -0.065080 0.004380 0.2982913 0.3047865 0.4426385 41.3463508 19.4870948 37.0852975 15.3912365
1.7721708 0.1268262 1.0088232 0.065266 -0.048142 0.002857 -1.0405366 -1.5425718 -2.1876559 32.6163913 21.3589406 39.2908563 16.9424287
1.6696923 0.1504467 1.0322419 0.069163 -0.032369 0.000786 -1.2184548 -2.6989846 -3.7316877 24.9673935 22.7140912 40.4345064 18.5056358
2.1027580 0.0291747 0.7083498 0.047818 -0.113023 0.001990 20.1352349 8.6049068 4.4512569 69.9718163 14.1806458 10.0652145 10.1690050
2.0546263 0.0704881 0.7878105 0.059052 -0.102161 0.003769 11.6100086 6.9150244 5.3787816 62.9704569 18.0352139 18.8059394 11.5858191
1.9878022 0.1071050 0.8561460 0.067774 -0.087931 0.004717 4.5775739 3.7152251 3.4272317 54.1520401 21.1337939 25.7007108 13.2773941
1.9064911 0.1386781 0.9116927 0.074082 -0.071707 0.004598 0.3892236 0.4302065 0.4318792 44.8331980 23.4201937 30.6402131 15.0244692
1.8145305 0.1652671 0.9543716 0.078550 -0.055060 0.003396 -1.3350881 -2.0387393 -2.1359314 35.9140498 25.0401178 33.9179541 16.6959004
1.7149502 0.1871156 0.9852124 0.081422 -0.039141 0.001495 -1.5998724 -3.4750992 -3.7143471 27.9831892 26.1762887 35.9253852 18.2299866
2.0560486 0.1121264 0.7042344 0.072934 -0.101618 0.002049 10.0225112 7.2451113 2.3052108 62.6518935 22.0266630 9.3131550 11.8406922
2.0007097 0.1470289 0.7788009 0.081422 -0.089583 0.003525 4.0776736 3.7873654 1.9904154 55.2826409 24.9132501 17.2090755 13.2151224
1.9284756 0.1769543 0.8420381 0.087339 -0.075105 0.004046 0.0507485 0.0612522 0.0406059 46.7715940 27.0074057 23.3116846 14.9152800
1.8432030 0.2019940 0.8927046 0.091094 -0.059515 0.003415 -1.7144174 -2.7454719 -2.0677966 38.2361892 28.4578941 27.6841125 16.4656033
1.7484247 0.2223780 0.9310553 0.093290 -0.044168 0.001871 -2.0432228 -4.4748473 -3.6308404 30.2646362 29.3830039 30.5884236 18.0610718
1.9936230 0.1832340 0.6991680 0.092924 -0.087265 0.001852 2.3241924 2.4887551 0.5690242 53.9692023 28.1635347 8.4042786 13.7522608
1.9331420 0.2116605 0.7682615 0.098787 -0.075218 0.002934 -0.7755935 -1.0353284 -0.4083003 46.8567101 30.1298349 15.3880273 15.1674410
1.8570646 0.2354507 0.8259685 0.102451 -0.061491 0.002880 -2.2632060 -3.8670905 -1.9834715 39.1265168 31.4670431 20.7694205 16.6378451
1.7690815 0.2548018 0.8713921 0.104134 -0.047209 0.001822 -2.4853962 -5.6177889 -3.3477837 31.6146943 32.2617243 24.6238581 18.0913518
1.9200307 0.2417521 0.6935765 0.107761 -0.072079 0.001341 -1.8214976 -2.7342525 -0.4853315 45.1194131 32.5760122 7.4984330 15.6479364
1.8556942 0.2644346 0.7567568 0.111400 -0.060660 0.001858 -2.8070691 -5.2094826 -1.6302249 38.7426802 33.8322070 13.6573394 16.8270299
1.7765316 0.2831369 0.8083485 0.113188 -0.048170 0.001440 -2.8712529 -6.8382828 -2.8228066 31.9881364 34.6376136 18.3105260 18.2433558
1.8390449 0.2884045 0.6877093 0.118120 -0.057591 0.000897 -3.2541556 -6.6948033 -0.9622490 36.9389848 35.6809361 6.5683025 17.4370233
1.7710847 0.3065134 0.7442684 0.120109 -0.047195 0.000848 -3.1543060 -8.0727612 -2.0605285 31.2926368 36.3512063 11.8490490 18.5758510
1.7533643 0.3246534 0.6813990 0.124594 -0.044406 0.000088 -3.0863025 -8.6696919 -1.0260718 29.8545496 37.6792176 5.8056348 18.9482092
1.7222609 0.3384577 0.6212298 0.127011 -0.039784 -0.000000 -3.4179409 -10.9207843 -0.0000012 27.2724104 37.8079921 0.0008884 19.5572813
1.8062402 0.3078130 0.6212298 0.122158 -0.052156 -0.000001 -3.2398432 -7.5947678 -0.0000006 34.0308440 36.8611819 0.0002168 17.9835642
1.8889076 0.2670666 0.6212298 0.113990 -0.066026 -0.000000 -2.7516978 -4.7541663 -0.0000003 41.7667848 34.3879269 0.0003286 16.4411408
1.9665151 0.2148244 0.6212297 0.101698 -0.081213 0.000000 0.1295782 0.1623756 0.0000000 50.4679684 30.7544317 -0.0000769 14.4877610
2.0353431 0.1499990 0.6212297 0.084296 -0.096349 -0.000000 6.3984152 5.6018927 -0.0000000 59.5015183 25.4364796 0.0001947 12.5974810
2.0909263 0.0725292 0.6212297 0.061602 -0.109727 0.000000 16.3377341 9.1792188 -0.0000005 67.8701672 18.3830483 -0.0000722 10.6587006
2.1284083 -0.0158286 0.6212297 0.034148 -0.119002 -0.000000 26.9241159 7.7344862 -0.0000013 74.0807425 9.7520582 0.0000296 9.2884729
2.1435974 -0.1109910 0.6212297 0.003800 -0.122077 0.000000 33.0565333 1.0369150 -0.0000019 77.0449112 0.1550908 -0.0000479 8.5091707
2.1344047 -0.2069649 0.6212297 -0.026565 -0.118123 -0.000000 30.8056637 -6.9227074 -0.0000018 76.1596305 -9.7811577 -0.0000233 8.8476071
2.1017743 -0.2973235 0.6212297 -0.054074 -0.107914 0.000001 21.8549242 -10.9483076 -0.0000011 71.4501311 -19.3840627 -0.0001642 9.9042102
2.0493405 -0.3769769 0.6212297 -0.076809 -0.093465 -0.000000 11.2161039 -9.2164979 -0.0000004 63.5673918 -27.7299555 -0.0000166 11.6738408
1.9821068 -0.4431627 0.6212297 -0.094155 -0.077103 0.000001 3.2954467 -4.0242892 -0.0000000 53.9611565 -34.1455532 -0.0002970 13.5150770
1.9051031 -0.4953127 0.6212297 -0.106651 -0.060833 0.000000 -0.9040631 1.5851096 -0.0000000 44.1871873 -38.4947495 -0.0003642 15.4799502
1.8226925 -0.5343209 0.6212297 -0.115064 -0.045816 0.000002 -2.2306558 5.6029590 -0.0000003 35.1035750 -41.1061244 -0.0004158 17.0595425
1.7391159 -0.5617208 0.6212298 -0.120757 -0.032465 0.000001 -2.4634496 9.1644689 -0.0000007 27.3125654 -42.6369391 -0.0016072 18.6566498
1.6809906 -0.5723559 0.5644239 -0.121784 -0.025207 0.000490 -2.5188056 12.1997467 1.2313482 22.3681769 -41.2353219 -5.1259831 19.4522725
1.6976533 -0.5586024 0.5027386 -0.118537 -0.027817 0.000964 -1.9876954 8.5430972 1.9734453 24.2725876 -41.7493521 -11.7828639 19.0081742
1.7052754 -0.5374756 0.4387747 -0.113333 -0.029524 0.001462 -1.8712074 7.3227382 2.7613074 25.0156567 -39.9846350 -18.3525732 18.8351300
1.7019746 -0.5093243 0.3754228 -0.106667 -0.030089 0.001654 -1.6441608 6.0113800 3.2813814 25.1440208 -37.5143284 -24.8793258 18.5310037
1.6868484 -0.4749107 0.3151483 -0.098039 -0.029080 0.001542 -1.3853495 4.8640255 3.6204207 24.2829866 -34.2760506 -30.9488447 18.5568928
1.6597887 -0.4354541 0.2601571 -0.088205 -0.026444 0.001086 -1.0772923 3.7456472 3.6814999 22.6786459 -30.5555331 -36.3622114 18.5218958
1.6213640 -0.3924674 0.2121672 -0.077269 -0.022094 0.000369 -0.8018602 2.8658468 3.6607375 20.3455806 -26.5261829 -40.8604571 18.8020023
1.5726445 -0.3475563 0.1722766 -0.065888 -0.016314 -0.000440 -0.5463450 2.1122606 3.4924825 17.6176462 -22.4145721 -44.4750708 19.0148102
1.5149906 -0.3022262 0.1409385 -0.054242 -0.009414 -0.001167 -0.3450750 1.5682210 3.3796839 14.5747318 -18.3843849 -47.1301321 19.5328821
1.4498604 -0.2577512 0.1180370 -0.042969 -0.002008 -0.001642 -0.1732964 1.1067620 3.1704602 11.5643910 -14.5527296 -49.0501571 19.8848730
1.3786721 -0.2151150 0.1030298 -0.032141 0.005477 -0.001808 -0.0411532 0.7782331 3.0776778 8.6169649 -11.0031287 -50.2563125 20.5052907
1.3027441 -0.1750176 0.0950891 -0.022209 0.012488 -0.001632 0.0642959 0.4953579 2.9020122 5.9389467 -7.7584802 -51.0167357 20.9111614
1.2233364 -0.1379274 0.0932261 -0.013194 0.018660 -0.001150 0.1526110 0.2911407 2.9280376 3.5323048 -4.8285299 -51.3081052 21.5297799
1.1417673 -0.1041451 0.0963543 -0.005369 0.023741 -0.000410 0.2085470 0.1011114 2.7195141 1.5227453 -2.2199080 -51.4201476 21.8657465
1.0601825 -0.0740567 0.1032574 0.001382 0.027593 0.000379 0.4989956 -0.0987717 5.1695174 -0.2186238 0.0703069 -50.8114606 22.4607374
1.7533643 0.3246534 0.5610606 0.124588 -0.044405 -0.000090 -3.0862721 -8.6696069 1.0260601 29.8566184 37.6791055 -5.8056954 18.9493805
1.7710846 0.3065134 0.4981912 0.120111 -0.047196 -0.000848 -3.1543216 -8.0728018 2.0605373 31.2923424 36.3512752 -11.8487908 18.5751848
1.7765316 0.2831370 0.4341111 0.113186 -0.048171 -0.001442 -2.8712210 -6.8382076 2.8227742 31.9890401 34.6381104 -18.3100850 18.2450588
1.7690815 0.2548018 0.3710674 0.104136 -0.047210 -0.001822 -2.4854086 -5.6178181 3.3477999 31.6144465 32.2616360 -24.6241726 18.0905002
1.7484247 0.2223781 0.3114042 0.093287 -0.044170 -0.001873 -2.0431953 -4.4747881 3.6307912 30.2655912 29.3839620 -30.5876868 18.0629418
1.7149501 0.1871157 0.2572471 0.081423 -0.039141 -0.001494 -1.5998728 -3.4751009 3.7143478 27.9829021 26.1758529 -35.9261546 18.2292258
1.6696923 0.1504467 0.2102176 0.069160 -0.032371 -0.000787 -1.2184371 -2.6989461 3.7316334 24.9686605 22.7154111 -40.4337911 18.5079632
1.6141361 0.1137789 0.1712847 0.057266 -0.024362 0.000087 -0.8695725 -2.0365307 3.6149250 21.4811659 19.2497483 -44.0821946 18.9199176
1.5499719 0.0783278 0.1407672 0.046068 -0.015583 0.000934 -0.5925752 -1.5471043 3.5318216 17.7830452 15.8043621 -46.8218055 19.4055616
1.4788827 0.0450276 0.1184406 0.036014 -0.006695 0.001565 -0.3497933 -1.1176090 3.3204393 14.0800232 12.5949421 -48.8143573 19.9328546
1.4024000 0.0145106 0.1036989 0.027020 0.001967 0.001908 -0.1645777 -0.8056193 3.1946128 10.5702828 9.5407963 -50.1116860 20.4720401
1.3218238 -0.0128547 0.0957062 0.019198 0.009878 0.001908 -0.0153527 -0.5335639 2.9585886 7.3330235 6.7902868 -50.9432262 21.0087196
1.2381505 -0.0369013 0.0935302 0.012330 0.016904 0.001576 0.0971708 -0.3337256 2.8254518 4.4657527 4.2397657 -51.3253536 21.5178295
1.1517559 -0.0574920 0.0962488 0.006427 0.022727 0.000990 0.1551599 -0.1454236 2.2835158 1.9331009 2.0279580 -51.8080850 21.9773022
1.8390449 0.2884045 0.5547503 0.118123 -0.057592 -0.000894 -3.2541867 -6.6948676 0.9622573 36.9375137 35.6809166 -6.5693218 17.4360641
1.8556942 0.2644346 0.4857027 0.111399 -0.060659 -0.001859 -2.8070610 -5.2094681 1.6302196 38.7430551 33.8321773 -13.6568317 16.8273202
1.8570645 0.2354507 0.4164910 0.102454 -0.061490 -0.002877 -2.2632408 -3.8671505 1.9835016 39.1256637 31.4664766 -20.7701879 16.6364865
1.8432030 0.2019940 0.3497548 0.091094 -0.059514 -0.003416 -1.7144119 -2.7454636 2.0677898 38.2362816 28.4580946 -27.6835993 16.4661659
1.8145304 0.1652672 0.2880878 0.078553 -0.055057 -0.003394 -1.3351216 -2.0387910 2.1359850 35.9132070 25.0390597 -33.9186744 16.6942348
1.7721708 0.1268262 0.2336363 0.065267 -0.048143 -0.002857 -1.0405398 -1.5425771 2.1876629 32.6164183 21.3596284 -39.2900652 16.9428302
1.7178309 0.0882787 0.1878148 0.052411 -0.039481 -0.001951 -0.8545401 -1.2544079 2.3842965 28.4851399 17.6226060 -43.5902610 17.5440577
1.6535096 0.0510441 0.1512286 0.040255 -0.029555 -0.000953 -0.6762053 -1.0066860 2.5767706 24.0270265 13.9464112 -46.8038451 18.0538560
1.5811923 0.0162135 0.1237828 0.029538 -0.019217 -0.000062 -0.5004463 -0.7815274 2.7525039 19.4565606 10.5235171 -49.0721577 18.8206604
1.5026214 -0.0154809 0.1048801 0.020027 -0.008885 0.000536 -0.3171019 -0.5520666 2.8026997 15.1175379 7.3279764 -50.5140533 19.4092571
1.4191399 -0.0436176 0.0936377 0.012009 0.000771 0.000765 -0.1535440 -0.3515809 2.8306346 11.0511460 4.4883903 -51.3185312 20.1865480
1.3315340 -0.0679804 0.0890639 0.005018 0.009588 0.000624 -0.0098229 -0.1669663 2.6913495 7.4746390 1.9221987 -51.6893868 20.7056804
1.2397016 -0.0883621 0.0902144 -0.000652 0.017220 0.000185 0.1025875 -0.0215066 2.5817685 4.2437284 -0.2991598 -51.8060670 21.4427655
1.9200306 0.2417521 0.5488830 0.107759 -0.072078 -0.001342 -1.8214622 -2.7341994 0.4853218 45.1204065 32.5760010 -7.4983409 15.6488809
1.9331420 0.2116605 0.4741980 0.098788 -0.075219 -0.002934 -0.7756016 -1.0353393 0.4083045 46.8564336 30.1300459 -15.3879780 15.1672513
1.9284756 0.1769543 0.4004214 0.087337 -0.075105 -0.004047 0.0507869 0.0612986 -0.0406367 46.7723849 27.0077180 -23.3114384 14.9165086
1.9064911 0.1386781 0.3307667 0.074083 -0.071708 -0.004598 0.3892172 0.4301996 -0.4318723 44.8331675 23.4202694 -30.6402750 15.0240379
1.8683847 0.0984411 0.2680608 0.059922 -0.065081 -0.004381 0.2983299 0.3048260 -0.4426958 41.3471783 19.4877528 -37.0850933 15.3929113
1.8161085 0.0580318 0.2143340 0.045996 -0.055940 -0.003586 -0.0061582 -0.0058487 0.0121172 36.6564788 15.4912477 -42.2844676 16.0037495
1.7520498 0.0190774 0.1706289 0.032963 -0.044969 -0.002509 -0.3013984 -0.2658474 0.7951546 31.3006323 11.5639828 -46.1712146 16.7554305
1.6786225 -0.0171621 0.1370723 0.021520 -0.033157 -0.001422 -0.4158399 -0.3361542 1.5175847 25.7545934 7.9493981 -48.8929414 17.6077782
1.5979320 -0.0498510 0.1131191 0.011651 -0.021135 -0.000598 -0.4006392 -0.2837751 2.1495188 20.3620691 4.6337479 -50.5595163 18.4633719
1.5115642 -0.0785156 0.0978279 0.003393 -0.009634 -0.000168 -0.2798888 -0.1464503 2.4959265 15.3750361 1.7326272 -51.4445732 19.3013315
1.4204431 -0.1029165 0.0901075 -0.003399 0.001066 -0.000154 -0.1311197 0.0078459 2.6928059 10.8762973 -0.8351443 -51.7627389 20.1110958
1.3246719 -0.1228597 0.0888846 -0.008928 0.010510 -0.000516 0.0156025 0.1514432 2.7381269 6.9499247 -3.0003734 -51.6945977 20.8390075
1.9936230 0.1832340 0.5432914 0.092926 -0.087264 -0.001851 2.3241520 2.4887119 -0.5690142 53.9685154 28.1634367 -8.4045301 13.7513790
2.0007097 0.1470289 0.4636586 0.081422 -0.089582 -0.003525 4.0776743 3.7873665 -1.9904157 55.2827930 24.9131099 -17.2089305 13.2151805
1.9878022 0.1071050 0.3863134 0.067777 -0.087930 -0.004715 4.5775240 3.7151852 -3.4271946 54.1512588 21.1334616 -25.7010549 13.2763678
1.9559315 0.0650790 0.3149603 0.052855 -0.082091 -0.004999 3.9312406 2.7849130 -4.1209167 50.8591989 16.9736505 -33.3972292 13.5411447
1.9071904 0.0228884 0.2524874 0.038042 -0.072993 -0.004525 2.5210215 1.5372572 -3.5712433 45.7139975 12.7597421 -39.7289590 14.3188337
1.8443785 -0.0176384 0.2006048 0.024127 -0.061203 -0.003537 1.1816725 0.5967814 -2.2463057 39.5467005 8.6268951 -44.5933441 15.1477069
1.7704500 -0.0550771 0.1598395 0.012054 -0.048106 -0.002353 0.2241581 0.0848168 -0.5797824 32.9010038 4.8579317 -47.9743029 16.2653554
1.6880394 -0.0884959 0.1297926 0.001745 -0.034433 -0.001391 -0.2283408 -0.0457206 0.8335214 26.3888685 1.4591739 -50.0531893 17.2265823
1.5991686 -0.1173909 0.1095025 -0.006519 -0.021115 -0.000777 -0.3436821 0.0346114 1.9042458 20.2671403 -1.4578048 -51.1328365 18.3630515
1.5051196 -0.1415378 0.0977583 -0.013254 -0.008609 -0.000661 -0.2497726 0.1922644 2.4558977 14.8399164 -3.9564459 -51.5091953 19.2165750
1.4063942 -0.1608143 0.0933308 -0.018360 0.002640 -0.000967 -0.0976611 0.3614693 2.8103501 10.0400911 -6.0237316 -51.3904662 20.2093925
2.0560485 0.1121265 0.5382250 0.072933 -0.101619 -0.002049 10.0225585 7.2451459 -2.3052220 62.6524156 22.0267673 -9.3132543 11.8415691
2.0546263 0.0704881 0.4546489 0.059052 -0.102162 -0.003769 11.6100083 6.9150250 -5.3787823 62.9704355 18.0354000 -18.8058386 11.5857757
2.0314140 0.0267194 0.3751058 0.043745 -0.097918 -0.004637 10.5383326 5.0714944 -7.5674281 60.3347120 13.6985649 -27.7518725 11.8458794
1.9883084 -0.0171126 0.3035460 0.028204 -0.089278 -0.004620 7.6539232 2.8246995 -7.7820260 55.2380810 9.2859273 -35.4623336 12.6001811
1.9283751 -0.0589983 0.2426405 0.013709 -0.077165 -0.003825 4.4019942 1.0883780 -6.1254204 48.4110161 4.9830974 -41.5784795 13.6447615
1.8551340 -0.0973621 0.1935816 0.001078 -0.063052 -0.002710 1.8694335 0.1857141 -3.5442675 40.7362826 1.1010916 -45.9081840 14.8779767
1.7718702 -0.1311978 0.1563099 -0.009350 -0.047950 -0.001654 0.3853029 -0.0397402 -1.0138342 32.9890023 -2.3296064 -48.6718591 16.1539645
1.6812031 -0.1600006 0.1299411 -0.017667 -0.033039 -0.000971 -0.2383789 0.1002746 0.9112362 25.7099716 -5.1802066 -50.1399753 17.3864340