# volRat = 0.650000
# viscRat = 5.000000
# alpha = 0.750000
# shRate = 3.175000
# tnum = 5800
# time = 4.859378
VARIABLES = X, Y, Z, U, V, W, F_B0, F_B1, F_B2, F_0, F_1, F_2, T
ZONE N=2562 E=5120 F=FEPOINT ET=TRIANGLE
1.6460543 0.3537379 0.6212299 0.154501 -0.037771 -0.000004 5.2112931 21.6822934 0.0000045 31.2726729 67.4984723 0.0026037 26.4100666
-1.6581603 0.5740722 0.6212299 0.150366 0.026049 -0.000005 -3.7247698 21.2540199 0.0000049 -27.7155360 71.0287795 0.0029960 25.4583451
1.6581602 -0.5740724 0.6212299 -0.150363 -0.026048 0.000005 3.7247851 -21.2541072 0.0000051 27.7142442 -71.0294958 -0.0030135 25.4598508
-1.6460543 -0.3537381 0.6212299 -0.154503 0.037772 0.000004 -5.2113096 -21.6823596 0.0000043 -31.2713899 -67.4991736 -0.0026134 26.4113877
0.9794301 -0.0383080 1.1280015 0.009838 0.033769 -0.001451 -1.9772439 1.6881446 20.4615456 -2.2235465 4.5835457 75.0114942 29.1299293
0.9794301 -0.0383080 0.1144582 0.009834 0.033742 0.001441 -1.9764195 1.6875019 -20.4531029 -2.2182475 4.6117390 -75.0015722 29.1268681
-0.9794301 0.0383080 1.1280015 -0.009836 -0.033739 -0.001464 1.9789948 -1.6896525 20.4796714 2.2211450 -4.6143901 75.0273554 29.1270763
-0.9794301 0.0383080 0.1144582 -0.009840 -0.033766 0.001475 1.9798118 -1.6903558 -20.4881970 2.2264079 -4.5862309 -75.0373647 29.1300846
-0.0477754 0.3484850 0.8413938 0.090913 -0.007104 0.003231 -6.8216029 -72.4303030 -41.8790094 -1.1122115 -7.9517542 0.5991152 32.8378205
0.0477752 -0.3484863 0.8413946 -0.091079 0.004603 0.004891 7.7201962 81.9645553 -47.4087754 1.9647713 17.3655488 -4.9867980 32.7776323
-0.0477753 0.3484858 0.4010655 0.090994 -0.005451 -0.004420 -7.6265348 -80.9695573 46.8336128 -1.8712892 -16.4033327 4.4663389 32.7693084
0.0477753 -0.3484856 0.4010657 -0.090997 0.006265 -0.003693 6.9119380 73.3898062 42.4334183 1.2022189 8.8794081 -0.1002279 32.8465899
1.6691774 0.3464825 0.6719945 0.154740 -0.040281 -0.000012 -4.1230423 -15.8728964 -1.4253941 28.9132160 48.8866068 5.5595881 26.1959121
1.6861802 0.3338392 0.7274960 0.151244 -0.042645 0.000125 -2.9293239 -10.4267756 -2.1375756 31.4144961 51.1089756 13.1239292 25.6673623
1.6942340 0.3160107 0.7856076 0.145426 -0.043733 0.000327 -2.8180282 -9.4279967 -3.1416946 32.1100009 49.3254683 20.5222707 25.4710609
1.6914857 0.2933483 0.8438949 0.136805 -0.043083 0.000522 -2.5425302 -8.1499470 -3.8997929 32.1814390 47.0159135 28.0800417 25.1036218
1.6770163 0.2664524 0.9002346 0.126417 -0.040697 0.000459 -2.2334477 -7.0142590 -4.5183506 31.1215875 43.8960684 35.3132422 25.1268493
1.6506604 0.2362452 0.9526468 0.114251 -0.036360 0.000057 -1.8134029 -5.7283099 -4.7813929 29.2441372 40.2942943 42.0603252 25.0433021
1.6129144 0.2038680 0.9995013 0.101335 -0.030358 -0.000631 -1.3870385 -4.5505287 -4.8058943 26.5086775 36.3447265 48.0268503 25.3329008
1.5647904 0.1705346 1.0396578 0.087981 -0.022872 -0.001538 -0.9806321 -3.4836264 -4.5878440 23.2520794 32.1656864 53.1050129 25.5118063
1.5076265 0.1373781 1.0725220 0.075152 -0.014537 -0.002442 -0.6481615 -2.6475605 -4.3150650 19.5547181 27.9696961 57.1666870 26.0437146
1.4429016 0.1053424 1.0980075 0.062859 -0.005661 -0.003246 -0.3781469 -1.9654274 -3.9582675 15.8256970 23.8091806 60.3256156 26.3648820
1.3720942 0.0751270 1.1164285 0.051726 0.003084 -0.003768 -0.1740530 -1.4419699 -3.6055723 12.1029994 19.8939228 62.7226124 27.0135479
1.2966106 0.0471887 1.1283796 0.041499 0.011341 -0.003940 -0.0247432 -1.0436218 -3.2797095 8.6548756 16.1539414 64.4129581 27.3885100
1.2178134 0.0217806 1.1346236 0.032396 0.018749 -0.003735 0.0871377 -0.7923100 -3.2008187 5.4700007 12.6603945 65.4658843 28.0332970
1.1371242 -0.0009965 1.1360284 0.024108 0.025060 -0.003381 0.1510902 -0.4957987 -2.6753445 2.7191354 9.4819017 66.6242159 28.3564572
1.0567565 -0.0210269 1.1335402 0.016847 0.029962 -0.002612 0.4970592 -0.7872930 -6.1407243 0.3049863 6.3061223 65.6291954 28.9705040
1.7700422 -0.5450490 0.6868488 -0.142461 -0.043657 -0.001286 -2.7003791 8.8693083 -1.1688099 36.8533546 -55.2046696 8.9163117 23.5539283
1.7872748 -0.5255568 0.7548564 -0.136608 -0.047588 -0.001984 -2.5728594 7.4879970 -2.1341569 39.2321713 -53.6660879 18.3321280 23.0900868
1.7918335 -0.4985415 0.8233866 -0.128464 -0.049885 -0.002654 -2.2889111 6.0532562 -2.8084243 40.2032548 -50.3440365 28.0154416 22.7000241
1.7830735 -0.4644248 0.8897828 -0.117858 -0.050089 -0.002894 -1.8773572 4.6046605 -3.1197487 39.6495807 -45.9122234 37.2263479 22.5464057
1.7607716 -0.4243675 0.9513990 -0.105351 -0.047904 -0.002539 -1.4605983 3.3854881 -3.1806022 37.7140579 -40.5618736 45.5114615 22.5584102
1.7254795 -0.3800178 1.0059922 -0.091256 -0.043220 -0.001773 -1.0992619 2.4522100 -3.1195994 34.5143310 -34.6690426 52.4659232 22.8336619
1.6784105 -0.3332295 1.0520295 -0.076385 -0.036269 -0.000760 -0.8162427 1.7852989 -3.0602018 30.4508843 -28.5573678 57.9564509 23.2811806
1.6211834 -0.2857828 1.0887918 -0.061281 -0.027498 0.000225 -0.5881290 1.2873750 -3.0099490 25.8913187 -22.5769200 61.9401888 23.8830681
1.5555432 -0.2391851 1.1162910 -0.046553 -0.017653 0.000926 -0.4003449 0.9005189 -2.9706597 21.2380519 -16.9309398 64.6822591 24.5951986
1.4831474 -0.1945843 1.1350885 -0.032573 -0.007434 0.001207 -0.2386689 0.5773099 -2.8825797 16.7027372 -11.7677310 66.3481961 25.3680348
1.4054433 -0.1527733 1.1460844 -0.019826 0.002377 0.001023 -0.1078805 0.3195737 -2.8214449 12.5411598 -7.0860637 67.2377016 26.1425572
1.3236145 -0.1142516 1.1503530 -0.008366 0.011288 0.000428 -0.0006650 0.1028360 -2.6801876 8.7930335 -2.9367590 67.5706030 26.9063202
1.2385303 -0.0792976 1.1490110 0.001619 0.018947 -0.000469 0.0761870 -0.0640855 -2.3980547 5.5130614 0.7054611 67.7276401 27.6529241
1.1504453 -0.0481113 1.1431408 0.010093 0.025159 -0.001487 0.1470435 -0.2096521 -2.5165318 2.7290251 3.8539298 67.2047810 28.3006380
1.8557525 -0.5127183 0.6931600 -0.134269 -0.060145 -0.001193 -2.5502418 5.7200172 -0.9129179 47.6130503 -53.4076098 10.2167407 21.7078178
1.8718300 -0.4866595 0.7671215 -0.126567 -0.064925 -0.002400 -1.9323638 3.8212960 -1.3334774 50.2163602 -50.2615162 21.0860189 20.9825272
1.8720146 -0.4531629 0.8402331 -0.115910 -0.066903 -0.002930 -1.3070765 2.3263725 -1.3436058 50.6669918 -45.8691029 31.6921645 20.7761774
1.8564028 -0.4130823 0.9094327 -0.103279 -0.066162 -0.002929 -0.7874140 1.2794533 -1.1038885 49.1729843 -40.2647870 41.5169267 20.6286389
1.8256149 -0.3680604 0.9718958 -0.088490 -0.062095 -0.002386 -0.5423252 0.8121840 -1.0021755 45.7101050 -33.9978903 49.8979430 21.0081358
1.7810411 -0.3201312 1.0255057 -0.073030 -0.055150 -0.001380 -0.4622892 0.6405654 -1.1176396 40.9659867 -27.3883306 56.5301878 21.4174959
1.7246212 -0.2713203 1.0691079 -0.057089 -0.045619 -0.000337 -0.4921197 0.6277357 -1.5729623 35.3055675 -20.9173678 61.3140903 22.2778788
1.6584826 -0.2233545 1.1024874 -0.041661 -0.034467 0.000476 -0.4508349 0.5175526 -1.9587820 29.4727797 -14.8552633 64.5563502 23.0402756
1.5846189 -0.1775237 1.1261467 -0.026963 -0.022507 0.000831 -0.3868425 0.3735891 -2.4051206 23.7029815 -9.3412295 66.4298196 24.1021325
1.5046861 -0.1346852 1.1410389 -0.013712 -0.010750 0.000692 -0.2632853 0.1665800 -2.5782510 18.4302099 -4.4168167 67.3656161 24.9371441
1.4198852 -0.0953450 1.1483213 -0.001677 0.000330 0.000070 -0.1418691 -0.0345665 -2.7185510 13.6097620 -0.1485986 67.6074205 26.0186367
1.3308377 -0.0597733 1.1491934 0.008513 0.010043 -0.000899 -0.0253120 -0.2062423 -2.5933625 9.4899761 3.6006810 67.4742174 26.7466070
1.2372698 -0.0281732 1.1447748 0.017330 0.018319 -0.002089 0.0694681 -0.3645486 -2.6557024 5.8204518 6.7964860 67.0052641 27.7500405
1.9370804 -0.4685571 0.6988052 -0.122270 -0.078837 -0.001364 -0.3258670 0.5077924 -0.0999527 59.8379039 -49.1574310 11.6178483 19.5294183
1.9493238 -0.4355747 0.7779137 -0.111861 -0.083568 -0.002219 1.0264582 -1.3920862 0.6133733 62.1983980 -44.8345923 23.6346743 18.9710328
1.9429584 -0.3955723 0.8547463 -0.098783 -0.084755 -0.002627 1.8528145 -2.2137487 1.6656017 61.6876402 -39.1036812 35.1995049 18.7470235
1.9186397 -0.3500707 0.9256954 -0.083636 -0.081890 -0.002203 1.8909839 -1.9963463 2.3389877 58.4612222 -32.5390004 45.3083313 18.9840010
1.8779166 -0.3012187 0.9878469 -0.067431 -0.075278 -0.001291 1.2981732 -1.2003230 2.1334255 53.0914055 -25.4876394 53.4868481 19.5777011
1.8231028 -0.2512816 1.0394039 -0.050854 -0.065266 -0.000217 0.5317961 -0.4183001 1.1512191 46.3234716 -18.5750936 59.4619247 20.4851230
1.7568239 -0.2022202 1.0797636 -0.034711 -0.052906 0.000628 -0.0471194 0.0292752 -0.1355982 39.0602899 -12.1009150 63.4871660 21.5508722
1.6815598 -0.1554829 1.1092909 -0.019536 -0.039220 0.001014 -0.3367326 0.1328735 -1.3222414 31.8507257 -6.2994806 65.8069092 22.7280578
1.5993355 -0.1119968 1.1289620 -0.005767 -0.025358 0.000840 -0.3901463 0.0139125 -2.1957153 25.1395159 -1.2063182 66.9091367 23.9119618
1.5115668 -0.0722788 1.1400456 0.006412 -0.012142 0.000136 -0.2998560 -0.1931890 -2.6532088 19.1463992 3.1694050 67.1620665 25.0408957
1.4189694 -0.0365903 1.1438666 0.016927 -0.000251 -0.000974 -0.1683453 -0.4058059 -2.8866358 13.8773494 6.9378772 66.8876879 26.1328617
1.3214282 -0.0051184 1.1416822 0.025622 0.010137 -0.002333 -0.0355046 -0.5911307 -2.9735720 9.3568551 10.0769076 66.2842457 27.1209462
2.0107838 -0.4109629 0.7039179 -0.104839 -0.098570 -0.001164 5.5132413 -5.8892822 1.4981086 72.7605805 -42.4156888 12.9244441 17.2408862
2.0164287 -0.3711543 0.7871522 -0.091538 -0.102465 -0.001762 7.5024458 -6.7795168 4.0194817 74.1611009 -36.6954470 26.0204900 16.6637435
2.0011281 -0.3254316 0.8663692 -0.075918 -0.101452 -0.001461 7.4725460 -5.6860087 6.0875777 71.7928699 -29.9322488 38.0231736 16.8718203
1.9663166 -0.2759904 0.9375954 -0.059086 -0.095741 -0.000610 5.8229673 -3.6384602 6.5924699 66.3067120 -22.6056052 48.1222592 17.3815416
1.9145875 -0.2253007 0.9980835 -0.041874 -0.085523 0.000506 3.4453760 -1.6564816 5.2317591 58.5889159 -15.3879511 55.7565398 18.5189442
1.8491254 -0.1755571 1.0465788 -0.025347 -0.072213 0.001428 1.4728250 -0.4573789 2.9730961 49.9026665 -8.6150214 60.9887824 19.7064284
1.7730417 -0.1283699 1.0831254 -0.009850 -0.056827 0.001793 0.1913126 -0.0165329 0.5181436 41.0233802 -2.6361247 64.0809600 21.2384192
1.6889138 -0.0847346 1.1086431 0.003932 -0.040995 0.001563 -0.3382926 -0.0817908 -1.2627776 32.7725270 2.5661870 65.6091651 22.5318961
1.5985684 -0.0451664 1.1244844 0.016177 -0.025587 0.000678 -0.4563370 -0.3574250 -2.4723290 25.3141467 6.9315467 66.0377189 24.0330571
1.5030330 -0.0098915 1.1321282 0.026442 -0.011468 -0.000645 -0.3430084 -0.6322506 -2.9806442 18.8912845 10.6048961 65.8100976 25.1729745
1.4025454 0.0209619 1.1329926 0.034969 0.000927 -0.002256 -0.1859958 -0.8856338 -3.2828325 13.3414543 13.6421405 65.1663528 26.4684693
2.0723815 -0.3393516 0.7081672 -0.081001 -0.117566 -0.000686 15.5445271 -10.7470620 3.8588149 84.7386247 -32.6768967 14.0087398 15.0005005
2.0687227 -0.2937240 0.7941413 -0.064977 -0.119249 -0.000493 16.5887881 -9.0856201 8.2178234 84.2036851 -25.8644670 27.6733586 14.8431202
2.0424182 -0.2441315 0.8740655 -0.047493 -0.114996 0.000343 13.9330727 -5.7293967 10.6133935 79.4158757 -18.4978514 39.8173078 15.3760380
1.9959721 -0.1931919 0.9439611 -0.029914 -0.105317 0.001619 9.2379941 -2.4736025 9.8853494 71.3543967 -11.1281723 49.4778271 16.5258251
1.9329998 -0.1433032 1.0015632 -0.013070 -0.091467 0.002616 4.7122199 -0.4761755 6.8363770 61.4069163 -4.2078140 56.3969507 18.0187946
1.8573048 -0.0962258 1.0463038 0.002334 -0.074796 0.003052 1.6236467 0.1816348 3.1669056 50.9977465 1.8384574 60.7473299 19.6913518
1.7721622 -0.0530098 1.0788494 0.016012 -0.057168 0.002724 0.0194156 0.0079376 0.0514545 41.0041045 7.0161613 63.0642524 21.3803882
1.6799815 -0.0141499 1.1005519 0.027769 -0.039662 0.001682 -0.5350332 -0.4614376 -1.9850329 32.0543425 11.2438762 63.9518549 22.9921121
1.5822508 0.0201887 1.1130097 0.037674 -0.023534 0.000116 -0.5599435 -0.9182854 -3.0834479 24.2645849 14.7613675 63.9474288 24.4687105
1.4796271 0.0499681 1.1178131 0.045641 -0.009163 -0.001771 -0.3814169 -1.2381363 -3.5048066 17.6651600 17.6058980 63.4394633 25.8200175
2.1166719 -0.2550679 0.7110608 -0.050637 -0.133113 0.000115 27.1571933 -10.3422907 6.3355585 93.6665189 -20.4024859 14.6380333 13.1880029
2.1015449 -0.2058103 0.7979995 -0.032677 -0.131211 0.001071 24.8181270 -6.0950094 11.6936636 90.5891446 -13.1360073 28.4659952 13.4513853
2.0631334 -0.1552002 0.8768211 -0.014711 -0.122819 0.002532 17.8426625 -1.8704906 13.0771000 83.0841143 -5.8229075 40.2439510 14.6570493
2.0050754 -0.1057780 0.9439523 0.002136 -0.109082 0.003819 10.1345326 0.5708842 10.5552698 72.6827827 1.0235625 49.2586321 16.1862267
1.9317129 -0.0594185 0.9978261 0.017190 -0.091705 0.004447 4.2013425 1.0821744 6.0045377 61.0178909 6.9895685 55.3013744 18.1869747
1.8470599 -0.0172051 1.0385508 0.030189 -0.072686 0.004176 0.8924173 0.4722227 1.7378227 49.5403956 11.9908439 58.8420403 20.0079379
1.7542264 0.0204050 1.0672751 0.041218 -0.053567 0.003012 -0.5183928 -0.4790829 -1.3936837 39.0596512 15.9944276 60.5292270 21.9569773
1.6552849 0.0533251 1.0856257 0.050277 -0.035616 0.001216 -0.7948351 -1.2325348 -3.0557040 29.9663745 19.2316575 61.0462307 23.5333269
1.5513732 0.0816156 1.0953252 0.057483 -0.019483 -0.000967 -0.6543014 -1.7504592 -3.8568527 22.2550731 21.7600859 60.8480028 25.1659327
2.1389265 -0.1620012 0.7121279 -0.015176 -0.142212 0.001055 34.2920025 -3.6138055 7.7201330 97.7819331 -6.8041290 14.7546002 12.2792634
2.1113953 -0.1122802 0.7980683 0.003086 -0.135939 0.002785 26.9458927 0.8619289 12.3994714 92.0162084 0.2997121 28.2446017 13.2160451
2.0612348 -0.0639149 0.8741493 0.019871 -0.123415 0.004459 16.5857881 3.1081052 12.0135783 82.1951634 6.9889340 39.3498262 14.8687456
1.9928874 -0.0188393 0.9374895 0.034400 -0.106317 0.005513 7.7074914 2.9155301 8.0317339 70.1436975 12.7929525 47.4264317 16.8905640
1.9109270 0.0218570 0.9872420 0.046649 -0.086759 0.005431 2.1941809 1.3823037 3.1799578 57.6007251 17.5244994 52.6514481 18.9968553
1.8191780 0.0577671 1.0240422 0.056561 -0.066544 0.004359 -0.3271327 -0.3219726 -0.6561096 45.9173462 21.2073342 55.5851739 21.0447073
1.7203835 0.0888848 1.0493448 0.064563 -0.047241 0.002445 -1.0589483 -1.6080574 -2.9902415 35.5874188 24.0630673 56.9363203 22.9097345
1.6162451 0.1153656 1.0649154 0.070639 -0.029717 0.000090 -0.9755728 -2.3423136 -4.0492036 26.8673633 26.2524096 57.3081523 24.5736801
2.1365308 -0.0662265 0.7111370 0.022234 -0.142860 0.001923 32.1476179 5.0980988 7.1622937 96.5333110 6.8398630 14.4053335 12.5265281
2.0972994 -0.0193793 0.7942618 0.038949 -0.132490 0.004059 21.5994544 6.6602963 9.9545726 88.4321253 13.2787338 27.1601154 13.8935275
2.0371321 0.0239930 0.8663723 0.053033 -0.116772 0.005628 10.9329174 5.3593472 8.0291629 77.0774704 18.8272819 37.2711377 15.9476888
1.9607050 0.0628237 0.9253404 0.064285 -0.097669 0.006085 3.6323482 2.6381571 3.8886824 64.4273698 23.2417925 44.4245826 18.0339560
1.8723651 0.0967591 0.9708939 0.073036 -0.077364 0.005359 -0.1267598 -0.1332504 -0.1915697 52.0105074 26.5604282 48.8921890 20.2842936
1.7755296 0.1258663 1.0040147 0.079701 -0.057418 0.003564 -1.3429062 -2.0479567 -2.8598791 40.8514944 29.0118506 51.4163838 22.1645451
1.6725401 0.1503756 1.0263267 0.084631 -0.039068 0.001164 -1.3858767 -3.1408112 -4.2560732 31.2513952 30.8036624 52.6261976 24.0681265
2.1100683 0.0255980 0.7082231 0.057748 -0.135184 0.002442 22.1362118 9.5540392 4.9999525 90.3002006 19.5364694 13.6424832 13.8529821
2.0611737 0.0670496 0.7871318 0.071495 -0.121897 0.004639 12.1620917 7.3604817 5.7514466 80.7302363 24.7921389 25.3046592 15.6127611
1.9934484 0.1038828 0.8544939 0.082137 -0.104659 0.005802 4.2740969 3.5409860 3.2621559 68.8772997 28.9091249 34.2709440 17.6918389
1.9113084 0.1357986 0.9087999 0.089849 -0.085238 0.005675 -0.1349529 -0.1527022 -0.1522931 56.6033686 31.8620162 40.4809356 19.8236695
1.8186683 0.1629156 0.9501763 0.095389 -0.065569 0.004245 -1.7499159 -2.7365845 -2.8347072 45.1007190 33.9171801 44.4518976 21.8629430
1.7185317 0.1855088 0.9798305 0.099019 -0.046966 0.002029 -1.8448369 -4.0886024 -4.3018069 35.0702707 35.3446261 46.7799289 23.7123608
2.0629737 0.1081899 0.7038264 0.088279 -0.121198 0.002538 10.3732886 7.6155124 2.4313106 80.4014820 30.2803070 12.5228089 15.9113032
2.0069327 0.1430640 0.7776127 0.098507 -0.106606 0.004372 3.6887506 3.4890647 1.8322791 70.4423560 34.0596154 22.9550937 17.6005436
1.9339549 0.1731022 0.8397626 0.105648 -0.089270 0.005025 -0.5685340 -0.7001554 -0.4618994 59.1922925 36.7119399 30.8240742 19.6829699
1.8480223 0.1984612 0.8891970 0.110212 -0.070807 0.004276 -2.2208573 -3.6293583 -2.7092379 48.1287420 38.4812379 36.3172645 21.5576727
1.7526863 0.2194156 0.9263475 0.112977 -0.052847 0.002487 -2.3642713 -5.2682737 -4.2200527 37.9923718 39.5813703 39.8535604 23.4951214
2.0000688 0.1787027 0.6984950 0.112313 -0.103795 0.002311 1.7467417 1.9027340 0.4344270 68.7326981 38.4344339 11.1864033 18.2539016
1.9390381 0.2070423 0.7666359 0.119287 -0.089373 0.003658 -1.4829893 -2.0154375 -0.7912893 59.3541223 40.8922205 20.3360861 19.9674105
1.8624048 0.2309581 0.8232077 0.123665 -0.073136 0.003630 -2.8444206 -4.9461374 -2.5174052 49.3273218 42.4912329 27.2443996 21.7582879
1.7739183 0.2507000 0.8674637 0.125758 -0.056411 0.002415 -2.8632721 -6.5671727 -3.8704136 39.7430232 43.3879239 32.0883808 23.5214784
1.9260861 0.2365580 0.6926930 0.129970 -0.085633 0.001684 -2.5628612 -3.9108887 -0.6907469 57.1186680 44.1268632 9.8843656 20.5458674
1.8613614 0.2592037 0.7548160 0.134272 -0.072156 0.002360 -3.4121141 -6.4299509 -1.9972144 48.8684567 45.6258700 17.8946705 21.9765698
1.7818000 0.2781315 0.8052872 0.136423 -0.057534 0.001914 -3.2778480 -7.9016710 -3.2286785 40.2608353 46.5183820 23.8545303 23.6853814
1.8448503 0.2826588 0.6866851 0.142223 -0.068548 0.001151 -3.8303165 -7.9850397 -1.1387240 46.5917183 48.0222634 8.5893983 22.7027933
1.7766262 0.3008513 0.7421565 0.144578 -0.056397 0.001155 -3.5387462 -9.1441433 -2.3108508 39.4454819 48.8267387 15.4426258 24.0761493
1.7590313 0.3185892 0.6803111 0.149910 -0.053133 0.000185 -3.5544398 -10.0534563 -1.1777278 37.4975805 50.1380321 7.4974091 24.5288554
1.7279305 0.3322412 0.6212299 0.152701 -0.047854 0.000001 -3.5993158 -11.5324027 -0.0000004 34.6100886 51.3074014 0.0012437 25.2484612
1.8120305 0.3017859 0.6212299 0.146983 -0.062186 -0.000004 -3.6809166 -8.7224082 -0.0000003 42.9069553 49.5236620 0.0015962 23.3542583
1.8949084 0.2614895 0.6212299 0.137348 -0.078466 0.000001 -3.4482947 -6.0485115 -0.0000002 52.7844731 46.4527522 0.0004062 21.5042721
1.9728695 0.2098784 0.6212299 0.122771 -0.096513 -0.000000 -0.5876716 -0.7488606 -0.0000000 64.1199709 41.8300575 -0.0000258 19.1345310
2.0421913 0.1457057 0.6212299 0.101958 -0.114746 -0.000001 6.2293793 5.5422175 0.0000001 76.1340037 34.8561798 0.0004947 16.8333294
2.0982901 0.0687161 0.6212299 0.074521 -0.131112 0.000000 17.6783621 10.0579011 0.0000003 87.4631745 25.3292401 -0.0000601 14.4559292
2.1360505 -0.0194510 0.6212299 0.040993 -0.142553 0.000001 30.2504240 8.7013266 0.0000003 95.9344750 13.3992774 -0.0001242 12.7560433
2.1509756 -0.1146192 0.6212299 0.003691 -0.146286 -0.000001 37.5022140 0.9386147 0.0000003 99.8863353 -0.0092176 0.0001957 11.8081667
2.1408331 -0.2104845 0.6212299 -0.033615 -0.141210 0.000001 34.4406731 -8.2165126 0.0000002 98.4402504 -13.8688932 -0.0002504 12.2718181
2.1067320 -0.3002893 0.6212299 -0.067186 -0.128343 0.000001 23.4763891 -12.3071880 0.0000001 91.6912347 -27.1074181 -0.0002099 13.6313605
2.0526846 -0.3788328 0.6212299 -0.094592 -0.110427 -0.000000 11.1020216 -9.5231297 0.0000001 80.7194401 -38.3100269 -0.0000367 15.8450850
1.9840500 -0.4435105 0.6212299 -0.115214 -0.090467 0.000001 2.4837857 -3.1671391 0.0000000 67.7275958 -46.5980183 -0.0004435 18.1117853
1.9060409 -0.4940428 0.6212299 -0.129862 -0.070961 0.000001 -1.6659542 3.0530503 -0.0000000 54.8849203 -51.9858409 -0.0009576 20.4859207
1.8230322 -0.5315898 0.6212299 -0.139617 -0.053228 0.000000 -2.6923593 7.0731039 -0.0000001 43.2601106 -55.0727556 -0.0000338 22.3790460
1.7391774 -0.5578537 0.6212299 -0.146183 -0.037637 0.000004 -2.6753654 10.4032454 -0.0000002 33.5549273 -57.0714828 -0.0032185 24.2877688
1.6809258 -0.5678833 0.5643260 -0.147266 -0.029313 0.000591 -2.9012703 14.6602450 1.4925354 27.2250377 -54.1662340 -6.7190656 25.2375642
1.6975062 -0.5542155 0.5025794 -0.143334 -0.032323 0.001233 -2.1442385 9.6193177 2.2362235 29.7172262 -55.5203360 -15.5446839 24.7032507
1.7050288 -0.5330645 0.4386107 -0.136933 -0.034322 0.001876 -2.0344803 8.3047410 3.1515318 30.6491422 -53.1721564 -24.2034804 24.4946579
1.7016129 -0.5047460 0.3753309 -0.128686 -0.035036 0.002131 -1.8086688 6.8856320 3.7849420 30.8125119 -49.7868779 -32.7711039 24.1217663
1.6863570 -0.4700149 0.3152190 -0.117972 -0.033930 0.001996 -1.5257937 5.5605633 4.1735860 29.7750969 -45.4070644 -40.7533369 24.1520698
1.6591563 -0.4301053 0.2604837 -0.105755 -0.030915 0.001417 -1.1782724 4.2305441 4.2027762 27.8270473 -40.3560653 -47.8480330 24.0968123
1.6205860 -0.3865616 0.2128287 -0.092153 -0.025893 0.000516 -0.8626625 3.1576631 4.0918265 24.9906697 -34.8826017 -53.7432439 24.4304466
1.5717236 -0.3410300 0.1733201 -0.078073 -0.019222 -0.000477 -0.5789630 2.2612957 3.8141712 21.6661780 -29.2647482 -58.4231866 24.6831073
1.5139352 -0.2950569 0.1423676 -0.063669 -0.011248 -0.001353 -0.3584541 1.6057618 3.5602289 17.9729937 -23.7856519 -61.8835498 25.3059106
1.4486810 -0.2499537 0.1198098 -0.049843 -0.002735 -0.001890 -0.1827607 1.0900798 3.2551080 14.3244847 -18.5542138 -64.3162378 25.7290684
1.3773791 -0.2067369 0.1050643 -0.036589 0.005823 -0.002026 -0.0535918 0.7293421 3.0725817 10.7513466 -13.7192316 -65.8690753 26.4920305
1.3013467 -0.1661362 0.0972740 -0.024536 0.013809 -0.001740 0.0446392 0.4333924 2.8157273 7.5165312 -9.3140154 -66.8290638 26.9834360
1.2218421 -0.1286476 0.0954330 -0.013643 0.020816 -0.001091 0.1257708 0.2329757 2.8600781 4.6006715 -5.3337935 -67.1560546 27.7429537
1.1401792 -0.0945970 0.0984499 -0.004264 0.026542 -0.000126 0.1445483 0.0391315 2.1541252 2.1390818 -1.8012623 -67.7067926 28.1682033
1.0584982 -0.0643912 0.1051183 0.003825 0.030953 0.000791 0.5252109 -0.2378964 6.1132598 0.0521334 1.2722899 -66.0287040 28.8981547
1.7590313 0.3185892 0.5621486 0.149898 -0.053131 -0.000185 -3.5543830 -10.0532959 1.1777084 37.5017612 50.1378554 -7.4981362 24.5316009
1.7766262 0.3008513 0.5003032 0.144579 -0.056397 -0.001154 -3.5387769 -9.1442229 2.3108704 39.4459596 48.8264782 -15.4418287 24.0742032
1.7818000 0.2781315 0.4371725 0.136420 -0.057535 -0.001916 -3.2777962 -7.9015463 3.2286270 40.2617755 46.5194984 -23.8541402 23.6891927
1.7739183 0.2507000 0.3749960 0.125760 -0.056411 -0.002413 -2.8632995 -6.5672357 3.8704503 39.7427310 43.3874241 -32.0892430 23.5196391
1.7526863 0.2194156 0.3161123 0.112971 -0.052849 -0.002489 -2.3642332 -5.2681888 4.2199843 37.9942227 39.5830252 -39.8521899 23.4983146
1.7185317 0.1855088 0.2626292 0.099022 -0.046966 -0.002027 -1.8448445 -4.0886194 4.3018243 35.0693891 35.3437901 -46.7814220 23.7108949
1.6725400 0.1503756 0.2161330 0.084627 -0.039071 -0.001166 -1.3858566 -3.1407659 4.2560115 31.2528103 30.8059160 -52.6250527 24.0726142
1.6162451 0.1153656 0.1775443 0.070636 -0.029715 -0.000088 -0.9755622 -2.3422883 4.0491595 26.8682146 26.2501186 -57.3099136 24.5706914
1.5513732 0.0816157 0.1471345 0.057481 -0.019487 0.000966 -0.6542885 -1.7504249 3.8567769 22.2561802 21.7636823 -60.8469088 25.1716936
1.4796271 0.0499681 0.1246466 0.045640 -0.009156 0.001775 -0.3814125 -1.2381218 3.5047655 17.6653624 17.6001558 -63.4420944 25.8185951
1.4025454 0.0209619 0.1094671 0.034963 0.000925 0.002256 -0.1859791 -0.8855546 3.2825386 13.3449429 13.6462172 -65.1658794 26.4723750
1.3214282 -0.0051184 0.1007775 0.025625 0.010146 0.002337 -0.0354976 -0.5910127 2.9729784 9.3554460 10.0689959 -66.2869948 27.1212534
1.2372698 -0.0281732 0.0976849 0.017332 0.018324 0.002088 0.0695531 -0.3649943 2.6589496 5.8218415 6.7957458 -67.0023389 27.7560778
1.1504453 -0.0481113 0.0993189 0.010091 0.025182 0.001484 0.1472895 -0.2100034 2.5207423 2.7304331 3.8397507 -67.2023323 28.2978794
1.8448503 0.2826588 0.5557746 0.142231 -0.068548 -0.001143 -3.8303708 -7.9851530 1.1387397 46.5884320 48.0221658 -8.5925483 22.7008011
1.8613614 0.2592037 0.4876437 0.134270 -0.072156 -0.002363 -3.4120922 -6.4299097 1.9972013 48.8689300 45.6262391 -17.8929248 21.9774251
1.8624048 0.2309581 0.4192520 0.123668 -0.073134 -0.003626 -2.8444709 -4.9462249 2.5174494 49.3263132 42.4898598 -27.2458567 21.7552650
1.8480223 0.1984612 0.3532628 0.110213 -0.070807 -0.004277 -2.2208403 -3.6293308 2.7092170 48.1285528 38.4821813 -36.3159387 21.5592043
1.8186683 0.1629156 0.2922835 0.095392 -0.065565 -0.004241 -1.7499555 -2.7366465 2.8347713 45.0994471 33.9150316 -44.4534483 21.8599777
1.7755296 0.1258663 0.2384451 0.079700 -0.057419 -0.003566 -1.3429023 -2.0479509 2.8598707 40.8521712 29.0133574 -51.4145706 22.1651720
1.7203835 0.0888848 0.1931149 0.064568 -0.047236 -0.002442 -1.0589789 -1.6081038 2.9903277 35.5852625 24.0606591 -56.9374901 22.9066037
1.6552848 0.0533251 0.1568340 0.050280 -0.035618 -0.001218 -0.7948411 -1.2325441 3.0557270 29.9660173 19.2342175 -61.0447516 23.5348442
1.5822508 0.0201887 0.1294500 0.037676 -0.023528 -0.000115 -0.5599694 -0.9183279 3.0835902 24.2634064 14.7588375 -63.9476023 24.4631137
1.5030330 -0.0098915 0.1103316 0.026446 -0.011476 0.000643 -0.3430109 -0.6322551 2.9806653 18.8901665 10.6109667 -65.8085592 25.1748923
1.4189694 -0.0365903 0.0985931 0.016930 -0.000243 0.000973 -0.1683608 -0.4058431 2.8869001 13.8751268 6.9344631 -66.8873503 26.1279523
1.3308377 -0.0597733 0.0932663 0.008510 0.010029 0.000898 -0.0253151 -0.2062679 2.5936842 9.4916981 3.6114077 -67.4731243 26.7455224
1.2385303 -0.0792976 0.0934487 0.001620 0.018945 0.000469 0.0761217 -0.0640307 2.3960027 5.5112459 0.7082225 -67.7288212 27.6482695
1.9260861 0.2365580 0.5497668 0.129964 -0.085631 -0.001687 -2.5628034 -3.9108005 0.6907311 57.1209717 44.1267517 -9.8837596 20.5477506
1.9390381 0.2070423 0.4758238 0.119290 -0.089374 -0.003656 -1.4830109 -2.0154669 0.7913007 59.3534253 40.8924253 -20.3365607 19.9669153
1.9339549 0.1731022 0.4026972 0.105644 -0.089270 -0.005026 -0.5684734 -0.7000808 0.4618502 59.1935468 36.7125904 -30.8238038 19.6855659
1.9113084 0.1357986 0.3336598 0.089849 -0.085238 -0.005675 -0.1349732 -0.1527252 0.1523160 56.6035995 31.8617483 -40.4810281 19.8222070
1.8723651 0.0967591 0.2715658 0.073034 -0.077366 -0.005359 -0.1267075 -0.1331955 0.1914906 52.0114128 26.5617970 -48.8920028 20.2876567
1.8191780 0.0577671 0.2184175 0.056562 -0.066543 -0.004357 -0.3271400 -0.3219798 0.6561242 45.9171378 21.2062694 -55.5859599 21.0438524
1.7542264 0.0204050 0.1751846 0.041211 -0.053569 -0.003013 -0.5183490 -0.4790424 1.3935658 39.0622826 15.9958482 -60.5288144 21.9597949
1.6799815 -0.0141498 0.1419078 0.027770 -0.039660 -0.001681 -0.5350316 -0.4614362 1.9850268 32.0537417 11.2418339 -63.9527436 22.9919566
1.5985683 -0.0451663 0.1179753 0.016173 -0.025585 -0.000677 -0.4563035 -0.3573988 2.4721477 25.3163757 6.9314653 -66.0381925 24.0377501
1.5115668 -0.0722788 0.1024141 0.006411 -0.012137 -0.000136 -0.2998559 -0.1931890 2.6532084 19.1469444 3.1652015 -67.1625059 25.0393984
1.4198852 -0.0953450 0.0941384 -0.001678 0.000333 -0.000070 -0.1418546 -0.0345630 2.7182729 13.6114707 -0.1492913 -67.6080583 26.0245295
1.3236145 -0.1142516 0.0921067 -0.008359 0.011304 -0.000429 -0.0006650 0.1028333 2.6801170 8.7903335 -2.9478839 -67.5700899 26.9076235
2.0000688 0.1787027 0.5439648 0.112316 -0.103795 -0.002308 1.7466801 1.9026669 -0.4344116 68.7311544 38.4343370 -11.1872289 18.2521844
2.0069327 0.1430640 0.4648470 0.098505 -0.106605 -0.004374 3.6887642 3.4890775 -1.8322857 70.4429962 34.0595132 -22.9540044 17.6006578
1.9934484 0.1038828 0.3879658 0.082141 -0.104657 -0.005799 4.2740345 3.5409343 -3.2621080 68.8757490 28.9085029 -34.2718156 17.6899680
1.9607050 0.0628237 0.3171193 0.064285 -0.097669 -0.006085 3.6323617 2.6381670 -3.8886968 64.4274861 23.2420673 -44.4241544 18.0346756
1.9109270 0.0218570 0.2552177 0.046652 -0.086756 -0.005431 2.1941214 1.3822663 -3.1798714 57.5997858 17.5233597 -52.6513835 18.9937041
1.8470599 -0.0172051 0.2039089 0.030191 -0.072688 -0.004176 0.8924239 0.4722262 -1.7378355 49.5399465 11.9921770 -58.8417923 20.0089304
1.7721622 -0.0530098 0.1636104 0.016018 -0.057165 -0.002723 0.0193622 0.0079158 -0.0513131 41.0018775 7.0149316 -63.0641728 21.3772111
1.6889138 -0.0847346 0.1338166 0.003931 -0.041000 -0.001564 -0.3382907 -0.0817904 1.2627706 32.7732890 2.5693739 -65.6087872 22.5313041
1.5993355 -0.1119968 0.1134977 -0.005761 -0.025358 -0.000840 -0.3901825 0.0139138 2.1959191 25.1368458 -1.2057530 -66.9085026 23.9081063
1.5046861 -0.1346852 0.1014208 -0.013711 -0.010756 -0.000691 -0.2632812 0.1665775 2.5782113 18.4301033 -4.4123860 -67.3662841 24.9377044
1.4054433 -0.1527733 0.0963753 -0.019826 0.002373 -0.001025 -0.1078906 0.3196036 2.8217081 12.5408310 -7.0820302 -67.2372071 26.1353881
2.0629737 0.1081899 0.5386334 0.088276 -0.121198 -0.002537 10.3733518 7.6155589 -2.4313250 80.4025208 30.2803429 -12.5232991 15.9130392
2.0611737 0.0670496 0.4553279 0.071496 -0.121898 -0.004638 12.1620774 7.3604732 -5.7514394 80.7299550 24.7924134 -25.3048158 15.6125814
2.0371321 0.0239930 0.3760874 0.053029 -0.116771 -0.005630 10.9329866 5.3593813 -8.0292134 77.0790027 18.8274697 -37.2706677 15.9493471
1.9928874 -0.0188393 0.3049703 0.034401 -0.106318 -0.005511 7.7074809 2.9155262 -8.0317227 70.1432173 12.7931402 -47.4268507 16.8904483
1.9317129 -0.0594185 0.2446337 0.017186 -0.091704 -0.004448 4.2014077 1.0821912 -6.0046308 61.0193538 6.9896559 -55.3015153 18.1896615
1.8573048 -0.0962258 0.1961559 0.002333 -0.074796 -0.003053 1.6236442 0.1816346 -3.1669005 50.9982768 1.8378668 -60.7471620 19.6905996
1.7730417 -0.1283699 0.1593343 -0.009854 -0.056825 -0.001793 0.1913641 -0.0165374 -0.5182832 41.0251782 -2.6366913 -64.0812588 21.2421396