# volRat = 0.650000
# viscRat = 5.000000
# alpha = 0.750000
# shRate = 3.175000
# tnum = 2100
# time = 1.629853
VARIABLES = X, Y, Z, U, V, W, F_B0, F_B1, F_B2, F_0, F_1, F_2, T
ZONE N=2562 E=5120 F=FEPOINT ET=TRIANGLE
1.6433913 0.3567104 0.6212299 0.156397 -0.037769 0.000000 4.6887111 19.3315135 0.0000041 30.8758758 64.9943043 -0.0000727 26.7154017
-1.6786483 0.5711199 0.6212299 0.148586 0.031104 -0.000000 -3.5761750 17.7366658 0.0000042 -29.6000063 67.8362051 -0.0000035 25.3973948
1.6786483 -0.5711200 0.6212299 -0.148587 -0.031104 -0.000000 3.5761742 -17.7366633 0.0000041 29.6000761 -67.8361834 0.0000342 25.3973844
-1.6433913 -0.3567105 0.6212299 -0.156397 0.037769 0.000000 -4.6887104 -19.3315083 0.0000041 -30.8757357 -64.9943008 0.0000429 26.7152203
0.9923607 -0.0130896 1.1280810 0.013911 0.034323 -0.003322 -1.5817081 2.2881457 16.3384057 -1.8079749 7.7206867 70.7898984 29.3966863
0.9923607 -0.0130896 0.1143787 0.013899 0.034341 0.003194 -1.5702132 2.2715447 -16.2197183 -1.7971265 7.7043297 -70.6759733 29.3966651
-0.9923607 0.0130896 1.1280810 -0.013911 -0.034325 -0.003314 1.5811105 -2.2872848 16.3322345 1.8077300 -7.7194762 70.7839594 29.3964094
-0.9923607 0.0130896 0.1143787 -0.013900 -0.034338 0.003208 1.5712591 -2.2730515 -16.2305200 1.7979273 -7.7061020 -70.6863268 29.3968240
-0.0231905 0.3446579 0.8363463 0.089492 -0.006943 0.002181 -8.6044490 -97.7324078 -55.5907345 -2.8641677 -29.3736486 -11.8225357 32.9926373
0.0231904 -0.3446580 0.8363464 -0.089510 0.006739 0.002295 8.6188811 97.8962605 -55.6834897 2.8775561 29.5291301 -11.9048013 32.9933691
-0.0231904 0.3446580 0.4061134 0.089509 -0.006755 -0.002287 -8.6171808 -97.8767578 55.6725419 -2.8759932 -29.5096637 11.8948132 32.9935596
0.0231904 -0.3446579 0.4061134 -0.089497 0.006891 -0.002210 8.6086743 97.7802757 55.6178405 2.8682608 29.4194931 11.8472283 32.9922696
1.6659734 0.3497759 0.6688451 0.156234 -0.042516 -0.000297 -3.8495481 -14.7264492 -1.2317449 29.5287718 50.9012008 5.3425080 26.5087651
1.6828289 0.3381419 0.7211148 0.153180 -0.044829 -0.000342 -2.9503040 -10.4626012 -2.0003142 31.7020120 51.9533258 12.3976114 25.9993147
1.6911404 0.3220530 0.7761915 0.148092 -0.045875 -0.000372 -2.8194022 -9.4284816 -2.9258814 32.4416513 50.4541018 19.4755965 25.8162337
1.6890507 0.3018156 0.8318999 0.140452 -0.045141 -0.000360 -2.5753719 -8.2858149 -3.6809205 32.5466429 48.3792649 26.7161974 25.4714899
1.6756154 0.2779024 0.8863107 0.131135 -0.042927 -0.000706 -2.2810146 -7.2266417 -4.3002414 31.5545480 45.6269247 33.7635817 25.5069595
1.6506144 0.2510335 0.9375757 0.120044 -0.038827 -0.001398 -1.8879175 -6.0517637 -4.6324396 29.7525948 42.3833353 40.3838828 25.4376589
1.6144623 0.2221017 0.9841180 0.108132 -0.033067 -0.002423 -1.4745787 -4.9410018 -4.7385058 27.0883490 38.8096829 46.3468400 25.7248573
1.5680746 0.1920590 1.0247684 0.095571 -0.025806 -0.003704 -1.0671426 -3.8962533 -4.6001624 23.8992890 35.0051007 51.5173775 25.9079751
1.5126921 0.1617964 1.0588321 0.083267 -0.017590 -0.005055 -0.7234638 -3.0499284 -4.3848567 20.2375787 31.1244277 55.7754969 26.4185713
1.4497062 0.1320603 1.0860695 0.071197 -0.008725 -0.006322 -0.4348927 -2.3242412 -4.0468862 16.5105378 27.2414615 59.2028150 26.7341205
1.3805217 0.1034144 1.1066124 0.059962 0.000221 -0.007311 -0.2138487 -1.7563348 -3.7032220 12.7455930 23.4906583 61.9016534 27.3536733
1.3064840 0.0762485 1.1208632 0.049339 0.008845 -0.007828 -0.0501345 -1.3179053 -3.3844833 9.2152097 19.8469409 63.8818839 27.7178939
1.2289026 0.0508188 1.1293993 0.039579 0.016818 -0.007902 0.0713760 -1.0237334 -3.2441137 5.9076738 16.3472862 65.2689712 28.3305238
1.1491518 0.0272952 1.1329225 0.030447 0.023718 -0.007948 0.1252014 -0.5884518 -2.3535757 2.9938728 13.2104114 67.0045167 28.6512537
1.0693957 0.0059308 1.1322362 0.022109 0.029550 -0.006425 0.4755918 -1.1319130 -5.9792835 0.4302689 9.7107676 66.0040998 29.2286481
1.7893249 -0.5386029 0.6902581 -0.139586 -0.046845 -0.001665 -2.6939514 7.9170557 -1.1135588 39.9052357 -55.6773318 9.5824903 23.4069076
1.8053342 -0.5172583 0.7613602 -0.132878 -0.051044 -0.002566 -2.5402190 6.6324243 -2.0226891 42.2222207 -53.6273259 19.5673420 22.9452292
1.8082933 -0.4878332 0.8324505 -0.123847 -0.053343 -0.003449 -2.1534607 5.1016943 -2.5432854 43.0740582 -49.8980609 29.7793612 22.5534628
1.7977039 -0.4508733 0.9006731 -0.112285 -0.053359 -0.003856 -1.6794056 3.6670824 -2.6880693 42.2907263 -44.9926292 39.3697485 22.4253004
1.7735114 -0.4077306 0.9632721 -0.098885 -0.050892 -0.003680 -1.2652528 2.5790301 -2.6501120 40.0439408 -39.0918054 47.8445206 22.4644515
1.7364436 -0.3602700 1.0179988 -0.083883 -0.045790 -0.003153 -0.9271503 1.7819544 -2.5214047 36.5317015 -32.7162369 54.8672290 22.7873240
1.6878717 -0.3105513 1.0634087 -0.068284 -0.038386 -0.002471 -0.6999231 1.2765951 -2.4979200 32.1452799 -26.1340358 60.2618469 23.2787020
1.6295348 -0.2605302 1.0989376 -0.052663 -0.029193 -0.001935 -0.5197781 0.9001935 -2.5046549 27.3048254 -19.7823566 64.0841490 23.9354247
1.5632533 -0.2118491 1.1247836 -0.037697 -0.019037 -0.001763 -0.3786669 0.6157242 -2.5976351 22.3915091 -13.8042003 66.5474767 24.6920857
1.4907171 -0.1657491 1.1416987 -0.023709 -0.008599 -0.002044 -0.2418859 0.3529397 -2.6091570 17.6422047 -8.4125769 67.9415838 25.5142852
1.4133664 -0.1230747 1.1507574 -0.011241 0.001302 -0.002723 -0.1240038 0.1288989 -2.6419528 13.3022679 -3.5632223 68.5357935 26.3204927
1.3323411 -0.0843355 1.1531784 -0.000280 0.010287 -0.003703 -0.0193232 -0.0660134 -2.5627017 9.3878195 0.6665331 68.5989522 27.1189022
1.2484243 -0.0497843 1.1501837 0.008959 0.018002 -0.004734 0.0638116 -0.2206487 -2.4411249 5.9643218 4.3432965 68.3792003 27.8864514
1.1617297 -0.0195791 1.1429197 0.016539 0.024392 -0.005704 0.1397538 -0.3729977 -2.5530181 3.0195075 7.4202823 67.5817686 28.5544938
1.8736570 -0.5033088 0.6964829 -0.129846 -0.064348 -0.001438 -2.2326973 4.5309591 -0.7745916 51.0451251 -53.2202983 10.8817428 21.5114750
1.8881988 -0.4751337 0.7732669 -0.121225 -0.069188 -0.002856 -1.4327350 2.5614059 -0.9608890 53.5678851 -49.6764815 22.3594086 20.7917364
1.8864964 -0.4390807 0.8484646 -0.109618 -0.070999 -0.003497 -0.7254329 1.1609238 -0.7255179 53.7846687 -44.8062618 33.4214878 20.6084668
1.8688477 -0.3961557 0.9188695 -0.096000 -0.069933 -0.003590 -0.2310097 0.3336338 -0.3149157 51.9352772 -38.6802792 43.5103103 20.5036762
1.8360933 -0.3482016 0.9816322 -0.080307 -0.065407 -0.003191 -0.0886730 0.1156686 -0.1589733 48.0805533 -31.9192305 51.9914311 20.9357903
1.7898257 -0.2974477 1.0347239 -0.064125 -0.057948 -0.002414 -0.1548715 0.1806937 -0.3616907 42.9459160 -24.8552149 58.5325706 21.4072219
1.7321373 -0.2460839 1.0771561 -0.047652 -0.047917 -0.001768 -0.3169467 0.3212238 -0.9719032 36.9419641 -18.0073124 63.1297566 22.3280407
1.6652472 -0.1959650 1.1089150 -0.031925 -0.036391 -0.001487 -0.3718544 0.3037967 -1.5337674 30.8251276 -11.6290169 66.1181079 23.1492636
1.5911849 -0.1484780 1.1307054 -0.017187 -0.024205 -0.001749 -0.3661011 0.1914089 -2.1255260 24.8292139 -5.8842104 67.7208511 24.2583107
1.5115969 -0.1045496 1.1436647 -0.004143 -0.012351 -0.002497 -0.2723301 -0.0015869 -2.4201484 19.3678628 -0.7934681 68.3718630 25.1366427
1.4276360 -0.0647275 1.1491066 0.007431 -0.001267 -0.003647 -0.1626163 -0.2075248 -2.6498554 14.3856157 3.5728423 68.3390283 26.2504662
1.3398340 -0.0292971 1.1483529 0.016921 0.008441 -0.004977 -0.0453112 -0.3788720 -2.6056478 10.1128178 7.3645931 67.9258184 27.0064597
1.2477698 0.0015372 1.1426128 0.024803 0.016793 -0.006398 0.0537229 -0.5324394 -2.6229651 6.2898379 10.5372301 67.2941940 28.0233079
1.9528219 -0.4559723 0.7018007 -0.116151 -0.083626 -0.001585 0.7130816 -1.0091648 0.2138214 63.5331141 -48.3539668 12.2892030 19.2997159
1.9631847 -0.4207968 0.7832202 -0.104766 -0.088201 -0.002486 2.2285736 -2.7315030 1.3036837 65.6641508 -43.5730924 24.8205871 18.7718681
1.9546759 -0.3783054 0.8614678 -0.090695 -0.089028 -0.002914 2.9936567 -3.1961073 2.6343197 64.7544620 -37.3525698 36.7217710 18.5922219
1.9282202 -0.3301928 0.9328734 -0.074668 -0.085647 -0.002515 2.7980192 -2.5843424 3.3826442 61.0699946 -30.3260748 46.9590124 18.9049248
1.8856245 -0.2787814 0.9946033 -0.057760 -0.078482 -0.001733 1.8916673 -1.4735118 3.0289698 55.2233086 -22.8375731 55.0622056 19.5671017
1.8293978 -0.2264767 1.0450423 -0.040634 -0.067901 -0.000978 0.8778528 -0.5416485 1.8422423 48.0838841 -15.5926022 60.8882354 20.5513460
1.7622768 -0.1753438 1.0838076 -0.024220 -0.055130 -0.000605 0.1138178 -0.0471685 0.3151495 40.5110710 -8.8283083 64.6630494 21.6742361
1.6867776 -0.1269160 1.1114809 -0.009009 -0.041197 -0.000841 -0.2845825 0.0374126 -1.0634879 33.0697735 -2.8137248 66.7173730 22.9073309
1.6049072 -0.0821958 1.1292313 0.004561 -0.027284 -0.001682 -0.3940825 -0.1231774 -2.0763279 26.1794763 2.4415150 67.5472118 24.1286555
1.5180239 -0.0417663 1.1384914 0.016316 -0.014115 -0.003026 -0.3258088 -0.3661506 -2.6261564 20.0356656 6.9152891 67.5500511 25.2923636
1.4267472 -0.0059416 1.1407215 0.026149 -0.002319 -0.004646 -0.1978467 -0.6065510 -2.9130438 14.6318467 10.7303520 67.0407829 26.4021766
1.3308181 0.0250521 1.1372858 0.033960 0.008052 -0.006375 -0.0587244 -0.7995458 -2.9937827 9.9574787 13.8542729 66.2717424 27.4132475
2.0234267 -0.3952435 0.7063499 -0.096919 -0.103430 -0.001227 7.4004240 -7.1487914 1.9758857 76.3106646 -40.8514052 13.4999472 17.0282007
2.0268607 -0.3534169 0.7911528 -0.082647 -0.106904 -0.001787 9.3246683 -7.5307508 4.9100090 77.2951665 -34.7133349 26.9687855 16.5163476
2.0092822 -0.3055475 0.8709490 -0.066160 -0.105295 -0.001457 8.9272505 -5.9303301 7.1404669 74.4510457 -27.5651223 39.1546540 16.8042950
1.9724446 -0.2539747 0.9418226 -0.048651 -0.098953 -0.000643 6.7715902 -3.5287471 7.5089357 68.4591128 -19.8729171 49.2380205 17.4030317
1.9191881 -0.2012723 1.0012177 -0.031023 -0.088158 0.000285 3.9640140 -1.4382392 5.8720892 60.3293737 -12.3624462 56.7148619 18.6212221
1.8528313 -0.1497015 1.0481249 -0.014286 -0.074417 0.000820 1.7026090 -0.2891522 3.3330825 51.3242118 -5.3434924 61.7089178 19.8748136
1.7765181 -0.1009304 1.0828226 0.001190 -0.058817 0.000614 0.2601700 0.0228806 0.6776295 42.2304179 0.8192754 64.5470513 21.4585518
1.6927924 -0.0560226 1.1064304 0.014754 -0.042973 -0.000286 -0.3466723 -0.1609534 -1.2298348 33.8286805 6.1613094 65.8250193 22.7891890
1.6034077 -0.0155755 1.1204673 0.026576 -0.027716 -0.001861 -0.4956657 -0.5319534 -2.5084070 26.2549168 10.6236685 66.0291656 24.3176521
1.5092892 0.0200994 1.1265522 0.036209 -0.013810 -0.003799 -0.3872334 -0.8595772 -3.0556334 19.7215685 14.3543108 65.6008506 25.4801982
1.4105379 0.0507971 1.1262203 0.043889 -0.001573 -0.005884 -0.2233197 -1.1446700 -3.3629017 14.0497781 17.3951013 64.7938195 26.7880440
2.0809245 -0.3209779 0.7098031 -0.071278 -0.121770 -0.000653 17.8933929 -10.9836779 4.3754550 87.7293342 -30.4665679 14.4196212 14.8885449
2.0748635 -0.2738032 0.7964196 -0.054476 -0.122796 -0.000418 18.4350548 -8.7099195 8.9898398 86.6913157 -23.3629143 28.3090161 14.8271456
2.0464016 -0.2226606 0.8760095 -0.036452 -0.117844 0.000507 15.0314259 -5.0041349 11.2497310 81.3357611 -15.7089359 40.4408482 15.4586112
1.9983476 -0.1702249 0.9447891 -0.018578 -0.107548 0.001717 9.7628759 -1.7667865 10.2303862 72.8573308 -8.1183665 49.9573740 16.6972800
1.9344761 -0.1189111 1.0007649 -0.001631 -0.093282 0.002434 4.8948781 0.0015663 6.9199214 62.6109376 -1.0168174 56.6496066 18.2504269
1.8586147 -0.0704981 1.0436269 0.013646 -0.076443 0.002402 1.6435207 0.3863107 3.1022307 52.0376252 5.1695554 60.7507634 19.9690897
1.7739799 -0.0260877 1.0742501 0.027056 -0.058910 0.001464 -0.0268210 -0.0150909 -0.0681393 41.9511896 10.4632565 62.8335044 21.6810039
1.6828862 0.0137361 1.0941506 0.038384 -0.041678 -0.000263 -0.6023383 -0.6369291 -2.1146824 32.9462966 14.7816726 63.5282761 23.3159359
1.5867092 0.0486960 1.1050637 0.047690 -0.025908 -0.002471 -0.6283872 -1.1849881 -3.2139293 25.0983555 18.3581321 63.3485829 24.7977132
1.4859765 0.0786414 1.1086977 0.054877 -0.011856 -0.004917 -0.4376200 -1.5437681 -3.6218118 18.4175762 21.2252700 62.7154948 26.1596673
2.1203036 -0.2350850 0.7117111 -0.039574 -0.135954 0.000216 28.7631037 -9.1556518 6.6131414 95.6720543 -17.7914201 14.8521564 13.2625949
2.1028871 -0.1849878 0.7982799 -0.021252 -0.133253 0.001293 25.5478708 -4.6723239 11.8454359 92.0619995 -10.3639937 28.6920846 13.6398589
2.0627998 -0.1335345 0.8758984 -0.003156 -0.124247 0.002742 17.9569474 -0.6727204 12.9149010 84.1486283 -2.9021271 40.3341930 14.9314695
2.0038701 -0.0832237 0.9412938 0.013618 -0.110138 0.003859 9.9894370 1.3291353 10.1666536 73.4989980 4.0611083 49.1012684 16.5175789
1.9304538 -0.0359027 0.9931910 0.028428 -0.092725 0.004139 4.0177349 1.4017474 5.5778664 61.7372824 10.1248777 54.8812061 18.5460249
1.8464730 0.0073163 1.0319232 0.041109 -0.073918 0.003339 0.7405575 0.4747260 1.3896927 50.2569362 15.2042541 58.2001719 20.3781877
1.7549100 0.0458850 1.0588017 0.051698 -0.055236 0.001565 -0.6385222 -0.6788710 -1.6367807 39.8105505 19.2898174 59.7135660 22.3296443
1.6577087 0.0795848 1.0755811 0.060197 -0.037811 -0.000849 -0.8919783 -1.5362872 -3.2232271 30.7386534 22.5984574 60.0938710 23.9044150
1.5558808 0.1083315 1.0840951 0.066705 -0.022183 -0.003603 -0.7296434 -2.0977291 -3.9606451 23.0104434 25.1850349 59.8120341 25.5390971
2.1374014 -0.1419202 0.7117049 -0.003636 -0.143237 0.001165 34.0578236 -1.7637337 7.5474977 98.7074667 -4.0890107 14.7791079 12.5971993
2.1080942 -0.0921029 0.7963098 0.014517 -0.136308 0.002938 26.1291534 2.2836641 11.8077775 92.5289538 3.0784303 28.1179191 13.6258999
2.0570699 -0.0434833 0.8704687 0.031037 -0.123470 0.004535 15.7374639 3.9103929 11.1533758 82.4789983 9.8092990 38.9402170 15.3158415
1.9887846 0.0020821 0.9316394 0.045219 -0.106434 0.005325 7.1063898 3.1911494 7.2080953 70.4005786 15.6446232 46.7171970 17.3453951
1.9076859 0.0435007 0.9792350 0.057098 -0.087259 0.004835 1.8565607 1.3270440 2.6007284 57.9869828 20.4310846 51.7112893 19.4352317
1.8174292 0.0802766 1.0140627 0.066549 -0.067653 0.003271 -0.5316799 -0.5781619 -1.0213407 46.4313903 24.1747278 54.4465574 21.4685112
1.7206021 0.1122570 1.0376976 0.074051 -0.049059 0.000813 -1.1928295 -1.9602905 -3.1880454 36.2163202 27.1058846 55.6806873 23.3125938
1.6187743 0.1394274 1.0520032 0.079522 -0.032231 -0.002073 -1.0752203 -2.7362556 -4.1577566 27.5530289 29.3683113 55.9718144 24.9653443
2.1304192 -0.0476202 0.7096917 0.033195 -0.142145 0.001995 30.2200205 6.2620159 6.6091844 96.4985886 9.4567864 14.2464821 13.0655547
2.0902432 -0.0012088 0.7906755 0.049422 -0.131482 0.004073 19.8561774 7.1442416 8.9543072 88.1679817 15.8488262 26.6980371 14.4597634
2.0301763 0.0421136 0.8603402 0.063029 -0.115929 0.005451 9.7968136 5.3661459 7.0076507 76.8665071 21.3694076 36.4690372 16.5038300
1.9547523 0.0813052 0.9168760 0.073827 -0.097343 0.005612 3.0013882 2.3806625 3.1101707 64.3805432 25.7674735 43.2978187 18.5517842
1.8681112 0.1159300 0.9602191 0.082164 -0.077826 0.004503 -0.4427328 -0.5004867 -0.6424143 52.2195120 29.1352807 47.5470587 20.7636261
1.7734765 0.1458984 0.9914772 0.088396 -0.058756 0.002262 -1.5159313 -2.4534538 -3.0678002 41.2875570 31.6672551 49.9433534 22.6056653
1.6730384 0.1712531 1.0123608 0.092822 -0.041270 -0.000594 -1.5052564 -3.5696903 -4.3351869 31.8298613 33.5507417 51.0679118 24.4854823
2.1006430 0.0415942 0.7059252 0.067298 -0.133354 0.002395 19.7894537 9.4537824 4.3689090 89.5803854 21.8589000 13.3280183 14.5095684
2.0517312 0.0824117 0.7820985 0.080385 -0.120234 0.004449 10.5482176 6.9040206 4.8556663 80.0373717 26.9857022 24.5848898 16.2480646
1.9850126 0.1191765 0.8466764 0.090521 -0.103585 0.005374 3.4028440 3.0066391 2.5140713 68.4298142 31.0444307 33.1782345 18.2691816
1.9046818 0.1515198 0.8984254 0.097827 -0.085038 0.004936 -0.5340597 -0.6379065 -0.5791566 56.5038358 34.0205039 39.1213550 20.3437683
1.8144238 0.1794012 0.9376341 0.103036 -0.066396 0.003167 -1.9271070 -3.1515988 -2.9723207 45.3352112 36.1745003 42.9347671 22.3271228
1.7170564 0.2028975 0.9655999 0.106288 -0.048804 0.000586 -1.9582904 -4.4917790 -4.2978447 35.5148716 37.7024372 45.1514932 24.1406140
2.0517971 0.1211298 0.7008997 0.096011 -0.119077 0.002408 8.6959505 6.7733248 1.9805263 79.4201080 32.1585267 12.0923219 16.5846139
1.9965639 0.1554461 0.7715621 0.105615 -0.105039 0.004018 2.7443347 2.7263305 1.3180338 69.7057759 35.8190577 22.0900232 18.2152861
1.9253314 0.1855610 0.8307507 0.112346 -0.088600 0.004411 -0.9929863 -1.2743235 -0.7749165 58.8304892 38.4652373 29.6075273 20.2351271
1.8418417 0.2114800 0.8776234 0.116609 -0.071190 0.003380 -2.3984539 -4.0540574 -2.7870520 48.1424982 40.3045273 34.8600821 22.0417396
1.7494215 0.2332785 0.9127365 0.119100 -0.054342 0.001322 -2.4578614 -5.6171530 -4.1357097 38.3059244 41.5396221 38.2519086 23.9328800
1.9885937 0.1887317 0.6951572 0.118278 -0.102106 0.002079 0.9569506 1.0837018 0.2295823 67.8664844 39.8854439 10.7147038 18.8723468
1.9290252 0.2167167 0.7599668 0.124754 -0.088478 0.003179 -1.8332502 -2.5727840 -0.9380708 58.8332963 42.2987112 19.4376241 20.5224057
1.8547175 0.2408794 0.8135497 0.128830 -0.073246 0.002910 -2.9708577 -5.2996026 -2.5024921 49.1857826 43.9442869 26.0231617 22.2416283
1.7691757 0.2612793 0.8553620 0.130699 -0.057621 0.001484 -2.9198588 -6.8189042 -3.7211445 39.9384138 44.9634110 30.6544801 23.9505407
1.9154749 0.2441438 0.6891301 0.134410 -0.084819 0.001446 -2.7752117 -4.3443038 -0.7153160 56.5722394 45.2790816 9.4045167 21.0871062
1.8527414 0.2666373 0.7478801 0.138321 -0.072236 0.001858 -3.4637412 -6.6551922 -1.9259147 48.6615343 46.7963683 17.0198084 22.4532131
1.7759971 0.2859199 0.7954928 0.140259 -0.058642 0.001218 -3.2905980 -8.0311237 -3.0526586 40.3715786 47.7777046 22.6870752 24.1081309
1.8359926 0.2883530 0.6830566 0.145461 -0.068768 0.000868 -3.8146622 -8.0694447 -1.0739957 46.3877051 48.9973994 8.1463121 23.1557744
1.7702543 0.3065225 0.7352946 0.147478 -0.057602 0.000664 -3.5303974 -9.1953708 -2.1669314 39.5037885 49.7987772 14.6247979 24.4765494
1.7526495 0.3228940 0.6767833 0.152174 -0.054463 -0.000015 -3.3813523 -9.6048313 -1.0501443 37.7152383 51.3752596 7.1183092 24.9146170
1.7222986 0.3358599 0.6212299 0.154555 -0.049536 0.000000 -3.6792308 -11.7908839 -0.0000003 34.6318756 51.7102174 -0.0001201 25.6040122
1.8038031 0.3064913 0.6212299 0.149610 -0.062872 0.000000 -3.6104683 -8.6426070 -0.0000003 42.8104773 50.4149316 -0.0000152 23.7778796
1.8846349 0.2677705 0.6212299 0.141062 -0.078044 0.000000 -3.5201423 -6.3000186 -0.0000002 52.3525630 47.4673262 -0.0000310 22.0108702
1.9612901 0.2182966 0.6212299 0.127819 -0.095072 0.000000 -1.0814364 -1.4222118 -0.0000000 63.3331274 43.0716525 -0.0000196 19.7220167
2.0303054 0.1568204 0.6212299 0.108676 -0.112629 0.000000 4.9077709 4.5772184 0.0000001 75.0964473 36.4737201 -0.0000235 17.5003149
2.0874216 0.0828939 0.6212299 0.083087 -0.128874 0.000000 15.3862173 9.4323088 0.0000002 86.4828807 27.4063995 -0.0000087 15.1462286
2.1277748 -0.0023137 0.6212299 0.051272 -0.141051 0.000000 27.6979360 9.2345967 0.0000002 95.4567808 15.8690475 -0.0000157 13.3858885
2.1468077 -0.0953195 0.6212299 0.015049 -0.146303 0.000000 36.1479978 2.6836289 0.0000002 100.2759900 2.6529199 -0.0000166 12.2565126
2.1417603 -0.1904469 0.6212299 -0.022191 -0.143115 0.000000 35.2107451 -6.4367535 0.0000002 99.8976193 -11.2118399 -0.0000066 12.4751668
2.1129036 -0.2811422 0.6212299 -0.056715 -0.131977 0.000000 25.7568387 -11.7739139 0.0000001 94.2479043 -24.6731738 -0.0000112 13.5965904
2.0635012 -0.3618972 0.6212299 -0.085738 -0.115091 0.000000 13.4915340 -10.4139210 0.0000001 84.1303885 -36.4390416 -0.0000053 15.6675338
1.9985316 -0.4295353 0.6212299 -0.108204 -0.095429 0.000000 4.0774500 -4.7236306 0.0000000 71.5094347 -45.4694152 -0.0000106 17.8821677
1.9231755 -0.4832410 0.6212299 -0.124720 -0.075671 -0.000000 -0.9993601 1.6635157 -0.0000000 58.5183031 -51.4839415 0.0000193 20.2618535
1.8419527 -0.5238197 0.6212299 -0.135996 -0.057150 0.000000 -2.5841931 6.1232891 -0.0000001 46.5961353 -55.1678325 -0.0000171 22.2012283
1.7591724 -0.5527489 0.6212299 -0.143797 -0.040937 -0.000000 -2.9747622 10.2791328 -0.0000001 36.3163959 -57.2196845 0.0000470 24.1734106
1.7009423 -0.5641410 0.5611709 -0.145582 -0.031439 0.001071 -2.9949147 13.2566011 1.4366502 29.8693298 -55.8006228 -7.3561978 25.1572324
1.7165804 -0.5489747 0.4962560 -0.141056 -0.034656 0.001920 -2.2987762 9.0908028 2.2534303 32.2581482 -55.9132768 -16.6585970 24.6178541
1.7227850 -0.5256840 0.4294139 -0.133855 -0.036824 0.002826 -2.1313145 7.6869901 3.1190489 33.1305480 -53.2266683 -25.8594692 24.3982404
1.7177855 -0.4946910 0.3638215 -0.124761 -0.037505 0.003312 -1.8461786 6.1961013 3.6587693 33.1684381 -49.4116252 -34.8682674 24.0361673
1.7008054 -0.4569148 0.3021298 -0.113136 -0.036227 0.003425 -1.5158944 4.8337172 3.9256839 31.9298500 -44.5544220 -43.1776599 24.0705493
1.6718810 -0.4137977 0.2466284 -0.100029 -0.032912 0.003072 -1.1460728 3.5500060 3.8572530 29.7320206 -38.9980335 -50.4232154 24.0459407
1.6317288 -0.3671043 0.1990085 -0.085600 -0.027534 0.002488 -0.8319279 2.5674127 3.6963733 26.6244417 -33.0244594 -56.3373375 24.4076757
1.5815514 -0.3186870 0.1602436 -0.070893 -0.020481 0.001873 -0.5604641 1.7798437 3.4131507 23.0381535 -26.9629891 -60.9129809 24.7053634
1.5228111 -0.2702641 0.1305953 -0.056037 -0.012175 0.001466 -0.3556250 1.2207957 3.1857159 19.0957141 -21.1007596 -64.2002392 25.3641993
1.4570299 -0.2232739 0.1097259 -0.042031 -0.003386 0.001410 -0.1928463 0.7896951 2.9321980 15.2293772 -15.5738501 -66.3899783 25.8384433
1.3856523 -0.1788093 0.0968742 -0.028875 0.005332 0.001735 -0.0723691 0.4873713 2.8124635 11.4655279 -10.5067928 -67.6713175 26.6289052
1.3099874 -0.1376254 0.0910208 -0.017159 0.013446 0.002364 0.0237558 0.2401110 2.6400499 8.0573774 -5.9628302 -68.3221230 27.1666580
1.2312478 -0.1001963 0.0910293 -0.006837 0.020512 0.003258 0.1033566 0.0521420 2.6701854 4.9817069 -1.9036710 -68.4267781 27.9450060
1.1506610 -0.0667850 0.0957172 0.001791 0.026360 0.004275 0.1306177 -0.0874825 2.0536525 2.3773993 1.6568491 -68.7090025 28.4007871
1.0702197 -0.0376934 0.1038259 0.009012 0.030954 0.005127 0.4946725 -0.5757579 5.8615250 0.1231186 4.6275726 -67.0275046 29.1351787
1.7526495 0.3228940 0.5656764 0.152175 -0.054463 0.000015 -3.3813534 -9.6048346 1.0501441 37.7151492 51.3752727 -7.1182189 24.9145617
1.7702543 0.3065225 0.5071652 0.147478 -0.057602 -0.000664 -3.5303968 -9.1953693 2.1669305 39.5038149 49.7987629 -14.6248405 24.4765746
1.7759971 0.2859199 0.4469670 0.140259 -0.058642 -0.001217 -3.2905993 -8.0311270 3.0526594 40.3715382 47.7776843 -22.6870860 24.1080606
1.7691757 0.2612793 0.3870977 0.130699 -0.057621 -0.001484 -2.9198589 -6.8189046 3.7211443 39.9384051 44.9634180 -30.6544704 23.9505784
1.7494215 0.2332785 0.3297233 0.119100 -0.054342 -0.001322 -2.4578621 -5.6171546 4.1357106 38.3059730 41.5395704 -38.2519067 23.9327820
1.7170564 0.2028975 0.2768598 0.106288 -0.048804 -0.000586 -1.9582903 -4.4917789 4.2978443 35.5147988 37.7024598 -45.1514997 24.1406742
1.6730384 0.1712531 0.2300989 0.092822 -0.041270 0.000594 -1.5052574 -3.5696926 4.3351895 31.8299205 33.5507018 -51.0678856 24.4853776
1.6187743 0.1394274 0.1904566 0.079522 -0.032231 0.002073 -1.0752190 -2.7362523 4.1577515 27.5530171 29.3683024 -55.9718358 24.9653819
1.5558808 0.1083315 0.1583647 0.066705 -0.022183 0.003602 -0.7296452 -2.0977340 3.9606544 23.0104294 25.1850270 -59.8119988 25.5390205
1.4859765 0.0786414 0.1337621 0.054877 -0.011856 0.004917 -0.4376195 -1.5437662 3.6218073 18.4175787 21.2253132 -62.7154886 26.1597015
1.4105379 0.0507971 0.1162395 0.043889 -0.001573 0.005884 -0.2233170 -1.1446563 3.3628615 14.0498478 17.3949575 -64.7938766 26.7879274
1.3308181 0.0250521 0.1051740 0.033960 0.008052 0.006375 -0.0587294 -0.7996140 2.9940382 9.9573629 13.8544607 -66.2714563 27.4133449
1.2477698 0.0015372 0.0998469 0.024803 0.016793 0.006400 0.0536975 -0.5321880 2.6217267 6.2899733 10.5372364 -67.2953847 28.0231552
1.1617297 -0.0195791 0.0995400 0.016539 0.024392 0.005704 0.1400275 -0.3737282 2.5580185 3.0196714 7.4194658 -67.5769806 28.5545997
1.8359926 0.2883530 0.5594031 0.145461 -0.068768 -0.000868 -3.8146613 -8.0694430 1.0739949 46.3877657 48.9974023 -8.1462533 23.1558183
1.8527414 0.2666373 0.4945797 0.138321 -0.072237 -0.001858 -3.4637416 -6.6551931 1.9259145 48.6615088 46.7963717 -17.0198473 22.4532053
1.8547175 0.2408794 0.4289100 0.128830 -0.073246 -0.002910 -2.9708566 -5.2996008 2.5024909 49.1858386 43.9443135 -26.0230915 22.2416745
1.8418417 0.2114800 0.3648363 0.116609 -0.071190 -0.003380 -2.3984543 -4.0540582 2.7870523 48.1424500 40.3045198 -34.8601499 22.0417381
1.8144238 0.1794012 0.3048256 0.103036 -0.066396 -0.003167 -1.9271064 -3.1515979 2.9723196 45.3352484 36.1745530 -42.9347045 22.3271691
1.7734765 0.1458984 0.2509826 0.088396 -0.058756 -0.002262 -1.5159316 -2.4534544 3.0678008 41.2875487 31.6672132 -49.9434127 22.6056568
1.7206021 0.1122570 0.2047621 0.074051 -0.049059 -0.000813 -1.1928294 -1.9602902 3.1880449 36.2163093 27.1059579 -55.6806476 23.3126529
1.6577087 0.0795848 0.1668787 0.060197 -0.037811 0.000849 -0.8919782 -1.5362869 3.2232266 30.7386483 22.5984213 -60.0939119 23.9044086
1.5867092 0.0486960 0.1373960 0.047690 -0.025908 0.002471 -0.6283869 -1.1849875 3.2139276 25.0983903 18.3581348 -63.3485691 24.7977490
1.5092892 0.0200994 0.1159075 0.036210 -0.013810 0.003799 -0.3872330 -0.8595765 3.0556307 19.7214791 14.3543397 -65.6008825 25.4802317
1.4267472 -0.0059416 0.1017382 0.026149 -0.002319 0.004646 -0.1978479 -0.6065545 2.9130605 14.6319317 10.7303596 -67.0407321 26.4021765
1.3398340 -0.0292971 0.0941068 0.016922 0.008442 0.004977 -0.0453103 -0.3788648 2.6055981 10.1126597 7.3644573 -67.9259267 27.0065071
1.2484243 -0.0497843 0.0922761 0.008959 0.018001 0.004735 0.0638163 -0.2206649 2.4413042 5.9644554 4.3435999 -68.3789557 27.8864252
1.9154749 0.2441438 0.5533297 0.134410 -0.084819 -0.001446 -2.7752131 -4.3443061 0.7153161 56.5722049 45.2790831 -9.4044673 21.0870591
1.9290252 0.2167167 0.4824930 0.124754 -0.088478 -0.003179 -1.8332487 -2.5727820 0.9380699 58.8332880 42.2987022 -19.4376782 20.5224233
1.9253314 0.1855610 0.4117091 0.112346 -0.088600 -0.004411 -0.9929885 -1.2743265 0.7749182 58.8304845 38.4652291 -29.6074832 20.2350633
1.9046818 0.1515199 0.3440344 0.097827 -0.085038 -0.004936 -0.5340604 -0.6379074 0.5791573 56.5038292 34.0204917 -39.1213767 20.3437952
1.8681112 0.1159300 0.2822407 0.082165 -0.077826 -0.004503 -0.4427329 -0.5004868 0.6424144 52.2195084 29.1352680 -47.5470356 20.7635571
1.8174292 0.0802766 0.2283971 0.066549 -0.067653 -0.003271 -0.5316791 -0.5781610 1.0213390 46.4313788 24.1747415 -54.4465637 21.4685416
1.7549100 0.0458850 0.1836580 0.051698 -0.055236 -0.001565 -0.6385229 -0.6788717 1.6367824 39.8105840 19.2897610 -59.7135450 22.3295594
1.6828862 0.0137361 0.1483091 0.038384 -0.041679 0.000263 -0.6023379 -0.6369287 2.1146811 32.9462405 14.7817415 -63.5282857 23.3159871
1.6034077 -0.0155755 0.1219925 0.026576 -0.027716 0.001861 -0.4956661 -0.5319539 2.5084093 26.2549924 10.6236156 -66.0291260 24.3175438
1.5180239 -0.0417663 0.1039683 0.016316 -0.014115 0.003026 -0.3258087 -0.3661505 2.6261556 20.0355970 6.9152916 -67.5500857 25.2924278
1.4276360 -0.0647275 0.0933531 0.007431 -0.001267 0.003647 -0.1626160 -0.2075244 2.6498503 14.3857298 3.5729001 -68.3389839 26.2503562
1.3323411 -0.0843355 0.0892813 -0.000279 0.010287 0.003704 -0.0193230 -0.0660128 2.5626777 9.3877355 0.6664944 -68.5990096 27.1189744
1.9885937 0.1887317 0.5473025 0.118278 -0.102106 -0.002079 0.9569507 1.0837018 -0.2295822 67.8665218 39.8854466 -10.7146522 18.8723838
1.9965639 0.1554461 0.4708976 0.105615 -0.105039 -0.004018 2.7443333 2.7263292 -1.3180330 69.7057594 35.8190613 -22.0900549 18.2152862
1.9850126 0.1191765 0.3957833 0.090521 -0.103585 -0.005374 3.4028428 3.0066382 -2.5140702 68.4298401 31.0444454 -33.1782081 18.2692222
1.9547523 0.0813052 0.3255838 0.073827 -0.097343 -0.005612 3.0013875 2.3806620 -3.1101699 64.3805244 25.7674771 -43.2978442 18.5517795
1.9076859 0.0435007 0.2632248 0.057098 -0.087259 -0.004835 1.8565599 1.3270435 -2.6007273 57.9870168 20.4310915 -51.7112709 19.4352739
1.8464730 0.0073163 0.2105366 0.041109 -0.073918 -0.003339 0.7405584 0.4747266 -1.3896945 50.2568955 15.2042648 -58.2002059 20.3781918
1.7739799 -0.0260877 0.1682096 0.027056 -0.058910 -0.001464 -0.0268209 -0.0150909 0.0681392 41.9512387 10.4632695 -62.8334814 21.6810358
1.6927924 -0.0560226 0.1360294 0.014755 -0.042972 0.000286 -0.3466727 -0.1609536 1.2298362 33.8286227 6.1612595 -65.8250559 22.7892053
1.6049072 -0.0821958 0.1132284 0.004561 -0.027284 0.001681 -0.3940823 -0.1231773 2.0763270 26.1795230 2.4415877 -67.5471907 24.1286840
1.5115969 -0.1045496 0.0987951 -0.004142 -0.012351 0.002497 -0.2723301 -0.0015869 2.4201485 19.3677827 -0.7935430 -68.3718850 25.1366551
1.4133664 -0.1230747 0.0917024 -0.011241 0.001302 0.002723 -0.1240040 0.1288991 2.6419574 13.3022852 -3.5632126 -68.5357747 26.3205220
2.0517971 0.1211298 0.5415601 0.096011 -0.119077 -0.002408 8.6959522 6.7733262 -1.9805264 79.4200887 32.1585312 -12.0922886 16.5845727
2.0517312 0.0824117 0.4603613 0.080385 -0.120234 -0.004449 10.5482205 6.9040228 -4.8556674 80.0373718 26.9856955 -24.5849166 16.2480728
2.0301763 0.0421136 0.3821195 0.063029 -0.115929 -0.005451 9.7968116 5.3661450 -7.0076490 76.8665019 21.3694018 -36.4690013 16.5037805
1.9887846 0.0020821 0.3108203 0.045219 -0.106434 -0.005325 7.1063902 3.1911497 -7.2080955 70.4005609 15.6446248 -46.7172233 17.3454163
1.9304538 -0.0359027 0.2492688 0.028428 -0.092725 -0.004139 4.0177333 1.4017469 -5.5778641 61.7372998 10.1248697 -54.8811596 18.5459559
1.8586147 -0.0704981 0.1988328 0.013646 -0.076443 -0.002402 1.6435225 0.3863112 -3.1022341 52.0375974 5.1695454 -60.7507979 19.9691259
1.7765181 -0.1009304 0.1596372 0.001190 -0.058817 -0.000614 0.2601692 0.0228805 -0.6776275 42.2304508 0.8193001 -64.5470060 21.4584695