# volRat = 0.650000
# viscRat = 5.000000
# alpha = 0.750000
# shRate = 3.175000
# tnum = 4900
# time = 4.073818
VARIABLES = X, Y, Z, U, V, W, F_B0, F_B1, F_B2, F_0, F_1, F_2, T
ZONE N=2562 E=5120 F=FEPOINT ET=TRIANGLE
1.6478991 0.3534146 0.6212299 0.154712 -0.037330 0.000006 5.3198723 21.9810711 0.0000043 31.4949034 67.7593387 -0.0034022 26.3894210
-1.6597945 0.5737439 0.6212299 0.150113 0.026801 0.000005 -3.7499046 21.1865963 0.0000049 -27.8681740 71.0552118 -0.0026725 25.4445260
1.6597945 -0.5737440 0.6212299 -0.150114 -0.026801 -0.000004 3.7498890 -21.1865074 0.0000047 27.8689553 -71.0547333 0.0026474 25.4436129
-1.6478991 -0.3534147 0.6212299 -0.154711 0.037329 -0.000006 -5.3198523 -21.9809879 0.0000043 -31.4956905 -67.7588660 0.0033608 26.3886299
0.9807577 -0.0336192 1.1277628 0.011086 0.033602 -0.002467 -2.1048878 2.0405260 21.9429350 -2.3245432 5.4276370 76.4529609 29.1414051
0.9807577 -0.0336192 0.1146969 0.011096 0.033629 0.002499 -2.1094977 2.0450165 -21.9910774 -2.3374910 5.4034695 -76.5010787 29.1450554
-0.9807577 0.0336192 1.1277628 -0.011095 -0.033630 -0.002488 2.1083946 -2.0439079 21.9794888 2.3362458 -5.4019655 76.4898652 29.1450007
-0.9807577 0.0336192 0.1146969 -0.011085 -0.033603 0.002452 2.1032518 -2.0389742 -21.9259597 2.3227087 -5.4257088 -76.4365039 29.1412525
-0.0457953 0.3484551 0.8409438 0.090216 -0.010716 0.001266 -7.3760843 -78.8044015 -45.4696097 -1.5769301 -14.1778136 -3.4550585 32.7281376
0.0457954 -0.3484541 0.8409433 -0.090108 0.012892 -0.000189 6.4925182 69.3703976 -40.0110373 0.7553635 4.8558469 2.0797763 32.7900679
-0.0457954 0.3484543 0.4015163 0.090171 -0.012238 -0.000173 -6.5649161 -70.1441459 40.4573132 -0.8272169 -5.6037188 -1.6726571 32.7959294
0.0457953 -0.3484549 0.4015161 -0.090153 0.011368 -0.000903 7.2999999 77.9911185 45.0002650 1.5019418 13.3911604 3.0226653 32.7230037
1.6709542 0.3461667 0.6715954 0.154779 -0.040676 -0.000057 -4.1669784 -15.9374920 -1.4207280 29.0338109 48.8797483 5.5286735 26.1839799
1.6878910 0.3336288 0.7266961 0.151330 -0.042981 0.000141 -2.9498448 -10.4363650 -2.1246196 31.5541870 51.1543821 13.0348009 25.6577050
1.6958755 0.3160160 0.7844330 0.145597 -0.044025 0.000337 -2.8378045 -9.4429770 -3.1244692 32.2468997 49.3862507 20.4054147 25.4608389
1.6930542 0.2936817 0.8423949 0.137080 -0.043383 0.000544 -2.5579007 -8.1622296 -3.8765510 32.3176278 47.1231780 27.9236352 25.1006954
1.6785112 0.2672183 0.8984743 0.126844 -0.041002 0.000458 -2.2508472 -7.0451078 -4.5008968 31.2398534 44.0377109 35.1310860 25.1309726
1.6520858 0.2375303 0.9507032 0.114824 -0.036671 0.000047 -1.8309549 -5.7725508 -4.7728159 29.3568173 40.4868871 41.8488113 25.0503846
1.6142795 0.2057323 0.9974585 0.102089 -0.030671 -0.000677 -1.4032065 -4.6024903 -4.8063374 26.6053615 36.5939558 47.8072845 25.3448731
1.5661083 0.1730051 1.0376023 0.088897 -0.023203 -0.001607 -0.9956753 -3.5429496 -4.6025504 23.3399730 32.4827684 52.8675160 25.5336855
1.5089128 0.1404456 1.0705374 0.076212 -0.014857 -0.002568 -0.6604482 -2.7071566 -4.3382878 19.6354842 28.3422064 56.9390911 26.0596057
1.4441722 0.1089619 1.0961696 0.064047 -0.005998 -0.003416 -0.3869483 -2.0197865 -3.9829261 15.9005290 24.2554974 60.1085262 26.3886314
1.3733631 0.0792210 1.1148010 0.053005 0.002769 -0.003993 -0.1804753 -1.4944455 -3.6390603 12.1711477 20.3852204 62.5244129 27.0349985
1.2978885 0.0516534 1.1270102 0.042822 0.011036 -0.004227 -0.0285567 -1.0861848 -3.3005487 8.7245142 16.7009215 64.2523815 27.4080614
1.2191064 0.0264935 1.1335421 0.033728 0.018475 -0.004116 0.0834326 -0.8210755 -3.1763488 5.5340241 13.2415769 65.3833920 28.0478802
1.1384337 0.0038329 1.1352451 0.025428 0.024843 -0.003567 0.1589379 -0.5607412 -2.8572178 2.7761951 10.0662717 66.3686623 28.3778963
1.0580770 -0.0162110 1.1330441 0.018038 0.029852 -0.002733 0.5172188 -0.8966398 -6.4512533 0.3960500 6.8442739 65.2668597 28.9760454
1.7713500 -0.5445368 0.6872464 -0.142226 -0.043802 -0.001310 -2.7070825 8.8310549 -1.1720271 37.0101065 -55.2518404 8.9877787 23.5527427
1.7884307 -0.5248829 0.7556067 -0.136290 -0.047760 -0.002006 -2.5705340 7.4326964 -2.1335402 39.3845220 -53.7020201 18.4724550 23.0946228
1.7928311 -0.4976197 0.8244262 -0.128058 -0.050054 -0.002690 -2.2805825 5.9909810 -2.8002147 40.3428634 -50.3310200 28.2163744 22.6971000
1.7839232 -0.4631742 0.8910316 -0.117350 -0.050231 -0.002921 -1.8637847 4.5373500 -3.0990896 39.7743906 -45.8495507 37.4640088 22.5535502
1.7614970 -0.4227195 0.9527680 -0.104724 -0.048045 -0.002584 -1.4452884 3.3199653 -3.1481770 37.8227164 -40.4251663 45.7802837 22.5542602
1.7261138 -0.3779211 1.0073904 -0.090493 -0.043332 -0.001817 -1.0848309 2.3921163 -3.0777702 34.6058164 -34.4681044 52.7358526 22.8389594
1.6789931 -0.3306539 1.0533710 -0.075482 -0.036366 -0.000823 -0.8050894 1.7333836 -3.0147672 30.5316854 -28.2759742 58.2201464 23.2781686
1.6217561 -0.2827214 1.0900004 -0.060251 -0.027572 0.000136 -0.5816818 1.2449973 -2.9690965 25.9584655 -22.2358544 62.1731739 23.8876775
1.5561476 -0.2356549 1.1173044 -0.045412 -0.017728 0.000792 -0.3978383 0.8651364 -2.9371749 21.3000473 -16.5198511 64.8826792 24.5920018
1.4838229 -0.1906258 1.1358602 -0.031329 -0.007501 0.001021 -0.2390201 0.5469673 -2.8587864 16.7590771 -11.3102256 66.5058301 25.3775223
1.4062245 -0.1484493 1.1465860 -0.018524 0.002271 0.000779 -0.1099001 0.2917135 -2.8082283 12.5987953 -6.5658001 67.3523719 26.1422971
1.3245291 -0.1096444 1.1505746 -0.007016 0.011200 0.000135 -0.0031834 0.0763709 -2.6781874 8.8476310 -2.4043150 67.6368905 26.9171958
1.2395944 -0.0745053 1.1489612 0.002959 0.018788 -0.000793 0.0737662 -0.0885293 -2.3921080 5.5710723 1.2974239 67.7617345 27.6597103
1.1516568 -0.0432445 1.1428453 0.011421 0.025025 -0.001893 0.1414163 -0.2308048 -2.4570567 2.7772474 4.4380914 67.2545770 28.3167670
1.8568207 -0.5121027 0.6935332 -0.133969 -0.060341 -0.001205 -2.5360700 5.6574088 -0.9088956 47.7913222 -53.4537434 10.2906417 21.7106447
1.8727468 -0.4858728 0.7678041 -0.126198 -0.065122 -0.002418 -1.9068751 3.7503981 -1.3174640 50.3868154 -50.2725129 21.2301666 20.9776263
1.8727836 -0.4521194 0.8411433 -0.115455 -0.067076 -0.002945 -1.2755401 2.2566596 -1.3126094 50.8225822 -45.8361597 31.8871113 20.7805698
1.8570444 -0.4117037 0.9104785 -0.102682 -0.066315 -0.002952 -0.7557239 1.2190629 -1.0603221 49.3051873 -40.1633624 41.7440318 20.6236900
1.8261626 -0.3662824 0.9729837 -0.087792 -0.062232 -0.002400 -0.5105239 0.7572706 -0.9437496 45.8259230 -33.8367343 50.1421071 21.0155009
1.7815368 -0.3179074 1.0265477 -0.072204 -0.055275 -0.001396 -0.4392001 0.6004209 -1.0614888 41.0631679 -27.1475786 56.7619151 21.4128483
1.7251100 -0.2686251 1.0700263 -0.056130 -0.045707 -0.000370 -0.4778040 0.5973132 -1.5252501 35.3877615 -20.6174799 61.5173403 22.2860765
1.6590094 -0.2201845 1.1032182 -0.040575 -0.034567 0.000402 -0.4436765 0.4931041 -1.9224488 29.5446395 -14.4786248 64.7272039 23.0410715
1.5852256 -0.1738987 1.1266413 -0.025770 -0.022604 0.000705 -0.3850974 0.3505677 -2.3823858 23.7722187 -8.9137202 66.5581907 24.1138955
1.5054094 -0.1306485 1.1412659 -0.012430 -0.010868 0.000509 -0.2646753 0.1434600 -2.5685494 18.4959891 -3.9324786 67.4473564 24.9411914
1.4207538 -0.0909619 1.1482671 -0.000335 0.000184 -0.000174 -0.1446656 -0.0601255 -2.7201819 13.6761312 0.3741551 67.6433527 26.0384075
1.3318682 -0.0551297 1.1488634 0.009884 0.009850 -0.001184 -0.0280447 -0.2331729 -2.6041441 9.5536869 4.1711501 67.4614379 26.7581390
1.2384585 -0.0233737 1.1441941 0.018685 0.018132 -0.002394 0.0679993 -0.3989267 -2.6985626 5.8883512 7.3662975 66.9265264 27.7711114
1.9378956 -0.4678640 0.6991287 -0.121915 -0.079026 -0.001381 -0.2762535 0.4285046 -0.0848506 60.0366959 -49.1936901 11.6964100 19.5323566
1.9499962 -0.4347138 0.7784813 -0.111427 -0.083724 -0.002231 1.0821511 -1.4604428 0.6474494 62.3744981 -44.8395695 23.7714952 18.9829513
1.9435034 -0.3944578 0.8554639 -0.098251 -0.084900 -0.002644 1.9083772 -2.2667397 1.7172160 61.8395513 -39.0499659 35.3862233 18.7548621
1.9190900 -0.3486265 0.9264662 -0.082990 -0.082012 -0.002209 1.9422516 -2.0342868 2.4037712 58.5914304 -32.4278107 45.5163484 18.9980744
1.8783162 -0.2993827 0.9885800 -0.066687 -0.075408 -0.001284 1.3234074 -1.2094425 2.1749012 53.1787127 -25.2873909 53.6692206 19.5846895
1.8235009 -0.2490098 1.0400208 -0.049944 -0.065366 -0.000230 0.5576809 -0.4305127 1.2063168 46.4098068 -18.3221949 59.6442379 20.5010687
1.7572688 -0.1994881 1.0801995 -0.033685 -0.053021 0.000595 -0.0346934 0.0208396 -0.0996548 39.1348437 -11.7705380 63.6294034 21.5576397
1.6820955 -0.1522882 1.1094962 -0.018388 -0.039323 0.000940 -0.3327523 0.1213243 -1.3022112 31.9170633 -5.9190492 65.9055982 22.7429631
1.5999994 -0.1083607 1.1289032 -0.004524 -0.025505 0.000715 -0.3916233 -0.0036924 -2.1915156 25.2039500 -0.7610823 66.9581574 23.9217779
1.5123875 -0.0682463 1.1397063 0.007734 -0.012305 -0.000051 -0.3036353 -0.2171601 -2.6606747 19.2100192 3.6522223 67.1646101 25.0585993
1.4199621 -0.0322302 1.1432491 0.018283 -0.000453 -0.001215 -0.1725671 -0.4360095 -2.9030396 13.9450239 7.4618026 66.8403197 26.1420123
1.3225881 -0.0005232 1.1408093 0.027000 0.009899 -0.002633 -0.0389290 -0.6255530 -2.9908432 9.4190926 10.6263419 66.1996512 27.1449562
2.0113399 -0.4102324 0.7041706 -0.104459 -0.098730 -0.001154 5.5686767 -5.9239636 1.5149765 72.9228870 -42.4179686 12.9932843 17.2545957
2.0168601 -0.3702719 0.7875649 -0.091060 -0.102589 -0.001769 7.5816216 -6.8182854 4.0656398 74.3387646 -36.6787205 26.1480093 16.6719028
2.0014657 -0.3243107 0.8668426 -0.075353 -0.101548 -0.001458 7.5367031 -5.6976003 6.1431540 71.9424039 -29.8608010 38.1798046 16.8895724
1.9666070 -0.2745541 0.9380364 -0.058407 -0.095841 -0.000601 5.8725887 -3.6324294 6.6488100 66.4292439 -22.4648243 48.2868358 17.3937138
1.9148840 -0.2234858 0.9984118 -0.041078 -0.085621 0.000513 3.4805286 -1.6434238 5.2816602 58.6935578 -15.1817690 55.9080622 18.5384583
1.8494804 -0.1733174 1.0467303 -0.024421 -0.072308 0.001429 1.4905535 -0.4447285 3.0042005 49.9862089 -8.3410878 61.1003742 19.7165057
1.7735012 -0.1256797 1.0830509 -0.008812 -0.056940 0.001763 0.1968268 -0.0135469 0.5316075 41.1007593 -2.3018478 64.1494480 21.2602457
1.6895155 -0.0815913 1.1083086 0.005080 -0.041140 0.001494 -0.3402461 -0.0910428 -1.2644449 32.8445779 2.9603248 65.6268262 22.5441534
1.5993391 -0.0415924 1.1238713 0.017410 -0.025757 0.000547 -0.4620448 -0.3796593 -2.4859326 25.3881777 7.3676029 66.0084113 24.0552193
1.5039863 -0.0059356 1.1312356 0.027746 -0.011701 -0.000827 -0.3494017 -0.6642092 -3.0021890 18.9614232 11.0932962 65.7285908 25.1919485
1.4036759 0.0252240 1.1318401 0.036300 0.000662 -0.002501 -0.1915098 -0.9255962 -3.3075524 13.4139227 14.1593552 65.0443110 26.4970245
2.0726861 -0.3386434 0.7083310 -0.080573 -0.117650 -0.000703 15.6292231 -10.7620527 3.8827219 84.9313201 -32.6827134 14.0754593 15.0203112
2.0689342 -0.2928895 0.7943683 -0.064483 -0.119303 -0.000520 16.6543065 -9.0727547 8.2532822 84.3687523 -25.8314795 27.7856802 14.8718440
2.0425861 -0.2430803 0.8742599 -0.046918 -0.115054 0.000338 13.9807125 -5.6981727 10.6483188 79.5541491 -18.4057033 39.9421580 15.3992470
1.9961553 -0.1918416 0.9440417 -0.029229 -0.105373 0.001618 9.2711200 -2.4362062 9.9132939 71.4671344 -10.9767211 49.5961123 16.5528722
1.9332557 -0.1415847 1.0014667 -0.012261 -0.091548 0.002618 4.7304636 -0.4440950 6.8521451 61.4970605 -3.9891828 56.4832328 18.0400486
1.8576823 -0.0940887 1.0459829 0.003259 -0.074892 0.003042 1.6298225 0.1994049 3.1707081 51.0778666 2.1143497 60.7920665 19.7160716
1.7726988 -0.0504266 1.0782708 0.017052 -0.057298 0.002689 0.0161769 0.0068624 0.0427020 41.0768197 7.3478770 63.0573559 21.3957486
1.6807023 -0.0111192 1.0996965 0.028909 -0.039837 0.001599 -0.5431900 -0.4807424 -2.0035728 32.1251684 11.6253584 63.8967552 23.0175141
1.5831671 0.0236399 1.1118738 0.038890 -0.023760 -0.000013 -0.5695522 -0.9527651 -3.1094234 24.3355790 15.1884062 63.8393151 24.4848721
1.4807329 0.0537838 1.1164125 0.046904 -0.009431 -0.001960 -0.3898184 -1.2826959 -3.5337407 17.7376847 18.0642231 63.2898787 25.8430230
2.1167574 -0.2544575 0.7111231 -0.050221 -0.133111 0.000113 27.2005096 -10.3110234 6.3461942 93.8443632 -20.3929453 14.6871515 13.2217827
2.1015875 -0.2051021 0.7980245 -0.032209 -0.131202 0.001070 24.8431026 -6.0517196 11.7008225 90.7402726 -13.0848186 28.5456314 13.4777886
2.0631988 -0.1542938 0.8767251 -0.014167 -0.122820 0.002526 17.8618541 -1.8241081 13.0781949 83.2139571 -5.7203366 40.3293312 14.6915957
2.0052279 -0.1045809 0.9436723 0.002784 -0.109110 0.003830 10.1482316 0.6122500 10.5511862 72.7893048 1.1845021 49.3176451 16.2100624
1.9320056 -0.0578544 0.9973172 0.017947 -0.091769 0.004449 4.2067643 1.1089079 5.9962246 61.1120641 7.2065436 55.3237973 18.2145156
1.8475313 -0.0152208 1.0377826 0.031069 -0.072799 0.004168 0.8885832 0.4782148 1.7236802 49.6236610 12.2633943 58.8137661 20.0287428
1.7549000 0.0228353 1.0662290 0.042200 -0.053732 0.002968 -0.5289448 -0.4958937 -1.4143722 39.1421522 16.3165251 60.4526170 21.9841209
1.6561699 0.0561973 1.0842968 0.051356 -0.035835 0.001136 -0.8074289 -1.2676260 -3.0808185 30.0461935 19.5979090 60.9173407 23.5511469
1.5524631 0.0848948 1.0937255 0.058632 -0.019767 -0.001100 -0.6661876 -1.7996182 -3.8849582 22.3328959 22.1694344 60.6740719 25.1987813
2.1388639 -0.1615653 0.7120853 -0.014809 -0.142153 0.001038 34.2855008 -3.5786967 7.7128561 97.9487938 -6.7725548 14.7956591 12.3174359
2.1113568 -0.1117652 0.7978936 0.003487 -0.135881 0.002768 26.9425198 0.8954999 12.3814560 92.1649366 0.3658666 28.2993598 13.2582951
2.0612928 -0.0632064 0.8737770 0.020357 -0.123397 0.004450 16.5908810 3.1408403 11.9928105 82.3172612 7.1035113 39.3905058 14.8992510
1.9931015 -0.0178349 0.9368763 0.034989 -0.106348 0.005502 7.7134329 2.9414957 8.0145590 70.2490614 12.9560262 47.4362096 16.9243688
1.9113390 0.0232368 0.9863604 0.047359 -0.086845 0.005425 2.1922523 1.3917262 3.1644915 57.6931766 17.7351458 52.6129050 19.0190429
1.8198118 0.0595729 1.0228764 0.057381 -0.066687 0.004332 -0.3371892 -0.3343659 -0.6726636 46.0059556 21.4636678 55.5001423 21.0690089
1.7212469 0.0911356 1.0478903 0.065494 -0.047448 0.002396 -1.0726376 -1.6404308 -3.0073830 35.6706673 24.3648662 56.8021039 22.9295373
1.6173312 0.1180477 1.0631819 0.071654 -0.029993 0.000001 -0.9893250 -2.3897014 -4.0671767 26.9487737 26.5975446 57.1296313 24.5985998
2.1364292 -0.0660163 0.7109961 0.022509 -0.142758 0.001920 32.1290596 5.1058543 7.1455716 96.6944789 6.8878335 14.4263914 12.5686449
2.0972934 -0.0190893 0.7939072 0.039268 -0.132424 0.004050 21.6000937 6.6716610 9.9306255 88.5692253 13.3578387 27.1799380 13.9254307
2.0372894 0.0244889 0.8657580 0.053423 -0.116763 0.005622 10.9448123 5.3766442 8.0116846 77.2039700 18.9435627 37.2664162 15.9808629
1.9610735 0.0636311 0.9244404 0.064788 -0.097722 0.006085 3.6386140 2.6498644 3.8787508 64.5391695 23.3968289 44.3780292 18.0533873
1.8729722 0.0979534 0.9696955 0.073659 -0.077496 0.005348 -0.1323426 -0.1395583 -0.1989038 52.1146311 26.7606823 48.8017765 20.3119051
1.7763847 0.1274893 1.0025159 0.080437 -0.057615 0.003547 -1.3571246 -2.0765134 -2.8697307 40.9502770 29.2506785 51.2732062 22.1816022
1.6736368 0.1524348 1.0245371 0.085454 -0.039330 0.001113 -1.4071011 -3.1983893 -4.2819735 31.3399729 31.0739719 52.4242319 24.0930030
2.1100531 0.0255776 0.7079980 0.057936 -0.135105 0.002428 22.1495954 9.5503766 4.9882903 90.4512556 19.5995973 13.6486468 13.8871562
2.0613149 0.0671284 0.7866270 0.071720 -0.121872 0.004624 12.1888989 7.3719116 5.7426730 80.8718036 24.8769896 25.2948639 15.6448108
1.9938021 0.1041898 0.8536804 0.082466 -0.104702 0.005787 4.2945210 3.5573943 3.2624149 69.0016927 29.0217858 34.2286309 17.7137295
1.9119095 0.1364335 0.9076666 0.090284 -0.085356 0.005662 -0.1308176 -0.1480705 -0.1467642 56.7219485 32.0086024 40.3968688 19.8461946
1.8195317 0.1639428 0.9487241 0.095944 -0.065751 0.004232 -1.7599067 -2.7538473 -2.8301767 45.2107252 34.0950545 44.3201599 21.8740800
1.7196548 0.1869570 0.9780711 0.099691 -0.047231 0.002003 -1.8600257 -4.1243574 -4.2979506 35.1717339 35.5671225 46.6060304 23.7336573
2.0631556 0.1079787 0.7035337 0.088380 -0.121177 0.002534 10.4182045 7.6333377 2.4313605 80.5537280 30.3450095 12.5115870 15.9396131
2.0073127 0.1429801 0.7769889 0.098664 -0.106638 0.004366 3.7259595 3.5179171 1.8411490 70.5864711 34.1365573 22.9162927 17.6151301
1.9345779 0.1732671 0.8387933 0.105893 -0.089381 0.005024 -0.5519601 -0.6786998 -0.4456133 59.3314583 36.8162096 30.7484792 19.6999142
1.8489134 0.1989617 0.8878848 0.110581 -0.070985 0.004278 -2.2238775 -3.6293641 -2.6922374 48.2557365 38.6123939 36.1962979 21.5676202
1.7538506 0.2203010 0.9247071 0.113453 -0.053106 0.002482 -2.3791307 -5.2938732 -4.2072207 38.1119736 39.7469219 39.6894282 23.5128223
2.0005248 0.1783655 0.6981499 0.112372 -0.103851 0.002297 1.7932255 1.9480223 0.4433887 68.8848556 38.4937593 11.1652188 18.2652272
1.9397165 0.2068571 0.7659216 0.119413 -0.089501 0.003650 -1.4573789 -1.9752059 -0.7722931 59.5007916 40.9690621 20.2802521 19.9828357
1.8633443 0.2310323 0.8221240 0.123886 -0.073315 0.003622 -2.8409867 -4.9266471 -2.4939775 49.4663789 42.5827486 27.1497769 21.7621669
1.7751369 0.2511033 0.8660277 0.126082 -0.056666 0.002417 -2.8747241 -6.5744200 -3.8484156 39.8743673 43.5085896 31.9500542 23.5286699
1.9268579 0.2361610 0.6923087 0.129995 -0.085770 0.001691 -2.5363131 -3.8568318 -0.6784377 57.2777837 44.1817488 9.8507858 20.5540772
1.8623707 0.2589739 0.7540378 0.134363 -0.072339 0.002367 -3.4071376 -6.3968651 -1.9769433 49.0212705 45.6867990 17.8212115 21.9722302
1.7830832 0.2781576 0.8041319 0.136610 -0.057791 0.001931 -3.2870488 -7.8923617 -3.2049046 40.4038328 46.6071149 23.7418559 23.6938654
1.8459542 0.2822564 0.6862741 0.142267 -0.068761 0.001136 -3.8251701 -7.9396311 -1.1264820 46.7425145 48.0755700 8.5564821 22.7007139
1.7779820 0.3006190 0.7413449 0.144681 -0.056665 0.001165 -3.5527499 -9.1366051 -2.2950924 39.5869881 48.8786536 15.3610103 24.0765961
1.7604699 0.3182194 0.6798895 0.149913 -0.053457 0.000193 -3.5595524 -10.0141348 -1.1659608 37.6583221 50.2005224 7.4569066 24.5252629
1.7294809 0.3318468 0.6212299 0.152776 -0.048062 -0.000003 -3.6178364 -11.5235132 -0.0000001 34.7431468 51.3351394 -0.0008977 25.2484576
1.8132663 0.3013407 0.6212299 0.146988 -0.062413 0.000006 -3.6823537 -8.6836479 -0.0000001 43.0604000 49.5580221 -0.0023744 23.3436299
1.8958181 0.2610235 0.6212299 0.137361 -0.078640 -0.000002 -3.4309074 -5.9940626 -0.0000000 52.9403865 46.5029583 -0.0002647 21.5092906
1.9734556 0.2094384 0.6212299 0.122784 -0.096595 0.000000 -0.5446323 -0.6917693 0.0000000 64.2776890 41.8790982 -0.0000091 19.1394384
2.0424788 0.1453546 0.6212299 0.102003 -0.114760 0.000001 6.2837591 5.5762957 -0.0000000 76.2901647 34.9150229 -0.0005863 16.8583065
2.0983368 0.0685239 0.6212299 0.074631 -0.131035 -0.000000 17.7120565 10.0584176 -0.0000001 87.6173723 25.3838131 0.0000461 14.4808887
2.1359526 -0.0194264 0.6212299 0.041189 -0.142447 -0.000001 30.2408073 8.6925821 -0.0000003 96.0975998 13.4495548 0.0002448 12.8009371
2.1508572 -0.1143568 0.6212299 0.003993 -0.146183 0.000001 37.4760231 0.9561012 -0.0000003 100.0539641 0.0212622 -0.0003643 11.8454622
2.1408179 -0.2100130 0.6212299 -0.033245 -0.141152 -0.000001 34.4522398 -8.1793760 -0.0000003 98.6196083 -13.8652874 0.0003982 12.3129463
2.1069129 -0.2996765 0.6212299 -0.066780 -0.128394 -0.000001 23.5440358 -12.2956036 -0.0000002 91.8800333 -27.1094801 0.0001851 13.6513813
2.0531121 -0.3781580 0.6212299 -0.094187 -0.110526 0.000000 11.1951857 -9.5668273 -0.0000001 80.9254249 -38.3438724 -0.0000263 15.8687060
1.9847411 -0.4428418 0.6212299 -0.114827 -0.090628 -0.000001 2.5560575 -3.2458498 -0.0000000 67.9291668 -46.6433502 0.0004723 18.1125742
1.9069937 -0.4934286 0.6212299 -0.129532 -0.071149 -0.000002 -1.6336376 2.9794642 0.0000000 55.0723814 -52.0412884 0.0011126 20.4960275
1.8242362 -0.5310609 0.6212299 -0.139360 -0.053433 0.000001 -2.6921303 7.0311739 -0.0000000 43.4387568 -55.1228280 -0.0005398 22.3679239
1.7406118 -0.5574249 0.6212299 -0.145930 -0.037879 -0.000005 -2.7024737 10.4297161 -0.0000000 33.6946507 -57.1034313 0.0036976 24.2916905
1.6824548 -0.5674967 0.5639453 -0.147077 -0.029430 0.000659 -2.9138604 14.5903304 1.4968119 27.3652527 -54.2484979 -6.7969821 25.2335313
1.6988921 -0.5536862 0.5018228 -0.143104 -0.032463 0.001253 -2.1538131 9.5813783 2.2442168 29.8611577 -55.5564240 -15.6640432 24.6900926
1.7062546 -0.5323055 0.4375162 -0.136613 -0.034483 0.001916 -2.0398398 8.2587407 3.1583368 30.7819796 -53.1734563 -24.3944460 24.4898681
1.7026794 -0.5036742 0.3739629 -0.128267 -0.035177 0.002167 -1.8100877 6.8325147 3.7866316 30.9325602 -49.7386826 -33.0042381 24.1114690
1.6872788 -0.4685574 0.3136581 -0.117443 -0.034056 0.002047 -1.5231281 5.4981114 4.1642319 29.8825207 -45.3001737 -41.0268199 24.1427763
1.6599587 -0.4282056 0.2588183 -0.105104 -0.031010 0.001460 -1.1736273 4.1660033 4.1820719 27.9232718 -40.1866754 -48.1330509 24.0850957
1.6213014 -0.3841835 0.2111484 -0.091358 -0.025972 0.000589 -0.8581314 3.0959155 4.0624993 25.0683158 -34.6407971 -54.0367159 24.4237092
1.5723888 -0.3381607 0.1717095 -0.077160 -0.019272 -0.000388 -0.5757479 2.2056932 3.7794513 21.7405112 -28.9574178 -58.6998031 24.6705688
1.5145891 -0.2917083 0.1409009 -0.062633 -0.011292 -0.001215 -0.3573967 1.5579669 3.5261811 18.0379365 -23.4082347 -62.1405526 25.2984078
1.4493623 -0.2461622 0.1185471 -0.048689 -0.002759 -0.001710 -0.1835707 1.0498284 3.2247061 14.3787031 -18.1246539 -64.5366124 25.7258110
1.3781243 -0.2025617 0.1040488 -0.035378 0.005781 -0.001784 -0.0558044 0.6945973 3.0490757 10.8096192 -13.2324255 -66.0533329 26.4856119
1.3021881 -0.1616565 0.0965302 -0.023263 0.013771 -0.001447 0.0417890 0.4027267 2.7955251 7.5688345 -8.7940704 -66.9729329 26.9820056
1.2228044 -0.1239582 0.0949668 -0.012351 0.020741 -0.000762 0.1231112 0.2038686 2.8588280 4.6485538 -4.7758973 -67.2465697 27.7506208
1.1412757 -0.0898028 0.0982495 -0.002996 0.026467 0.000130 0.1482935 0.0174373 2.2391846 2.1932533 -1.2284439 -67.6782460 28.1681169
1.0597247 -0.0595995 0.1051558 0.005038 0.030854 0.001359 0.5041095 -0.2927387 5.9226417 0.0949612 1.8510723 -66.2482024 28.9046527
1.7604699 0.3182194 0.5625702 0.149927 -0.053460 -0.000193 -3.5596312 -10.0143566 1.1659865 37.6536228 50.2006531 -7.4559380 24.5220347
1.7779820 0.3006190 0.5011148 0.144681 -0.056666 -0.001167 -3.5527114 -9.1365062 2.2950674 39.5859243 48.8791788 -15.3619973 24.0790849
1.7830832 0.2781576 0.4383278 0.136613 -0.057790 -0.001930 -3.2871187 -7.8925298 3.2049727 40.4031825 46.6057907 -23.7420119 23.6894275
1.7751369 0.2511033 0.3764321 0.126079 -0.056667 -0.002420 -2.8746925 -6.5743479 3.8483733 39.8747097 43.5093258 -31.9489113 23.5307918
1.7538506 0.2203010 0.3177527 0.113459 -0.053104 -0.002479 -2.3791830 -5.2939896 4.2073131 38.1096118 39.7451776 -39.6910369 23.5096008
1.7196548 0.1869570 0.2643886 0.099687 -0.047231 -0.002005 -1.8600187 -4.1243419 4.2979343 35.1731500 35.5680805 -46.6042264 23.7352534
1.6736368 0.1524349 0.2179226 0.085458 -0.039328 -0.001112 -1.4071277 -3.1984499 4.2820546 31.3386180 31.0715475 -52.4255028 24.0880071
1.6173312 0.1180477 0.1792779 0.071656 -0.029996 -0.000003 -0.9893395 -2.3897363 4.0672361 26.9476294 26.6002869 -57.1276486 24.6025724
1.5524630 0.0848948 0.1487342 0.058633 -0.019762 0.001101 -0.6662017 -1.7996565 3.8850408 22.3322446 22.1650807 -60.6754989 25.1923348
1.4807329 0.0537839 0.1260473 0.046904 -0.009439 0.001956 -0.3898236 -1.2827131 3.5337881 17.7379701 18.0705863 -63.2869622 25.8446934
1.4036759 0.0252241 0.1106196 0.036307 0.000665 0.002501 -0.1915364 -0.9257247 3.3080115 13.4097133 14.1548138 -65.0448697 26.4936760
1.3225881 -0.0005232 0.1016504 0.026995 0.009891 0.002630 -0.0389259 -0.6255033 2.9906056 9.4217348 10.6338525 -66.1977394 27.1447015
1.2384585 -0.0233737 0.0982656 0.018683 0.018126 0.002394 0.0679705 -0.3987580 2.6974215 5.8870355 7.3667111 -66.9275418 27.7645793
1.1516568 -0.0432445 0.0996144 0.011424 0.025003 0.001891 0.1413424 -0.2306838 2.4557731 2.7758984 4.4523004 -67.2538702 28.3213710
1.8459542 0.2822564 0.5561857 0.142257 -0.068761 -0.001146 -3.8250952 -7.9394758 1.1264599 46.7463853 48.0757092 -8.5524366 22.7029428
1.8623707 0.2589739 0.4884219 0.134365 -0.072339 -0.002363 -3.4071630 -6.3969130 1.9769580 49.0208648 45.6861909 -17.8234833 21.9711222
1.8633443 0.2310323 0.4203357 0.123884 -0.073318 -0.003627 -2.8409191 -4.9265299 2.4939181 49.4671740 42.5843879 -27.1482906 21.7657018
1.8489134 0.1989617 0.3545749 0.110580 -0.070984 -0.004276 -2.2238943 -3.6293916 2.6922577 48.2561710 38.6110803 -36.1978625 21.5656535
1.8195317 0.1639428 0.2937356 0.095940 -0.065756 -0.004237 -1.7598554 -2.7537672 2.8300942 45.2120861 34.0974901 -44.3183603 21.8772076
1.7763847 0.1274893 0.2399438 0.080439 -0.057613 -0.003544 -1.3571261 -2.0765157 2.8697339 40.9490927 29.2489213 -51.2754103 22.1810049
1.7212469 0.0911356 0.1945694 0.065488 -0.047453 -0.002400 -1.0726006 -1.6403743 3.0072793 35.6730895 24.3674367 -56.8007370 22.9326795
1.6561699 0.0561973 0.1581629 0.051354 -0.035831 -0.001134 -0.8074206 -1.2676130 3.0807869 30.0464900 19.5951424 -60.9189278 23.5490117
1.5831671 0.0236399 0.1305859 0.038889 -0.023767 0.000012 -0.5695227 -0.9527158 3.1092624 24.3361718 15.1915693 -63.8390232 24.4912666
1.5039863 -0.0059356 0.1112241 0.027741 -0.011691 0.000829 -0.3494006 -0.6642070 3.0021791 18.9626665 11.0864267 -65.7302575 25.1891547
1.4199621 -0.0322302 0.0992107 0.018280 -0.000463 0.001214 -0.1725469 -0.4359585 2.9026998 13.9472809 7.4664685 -66.8405525 26.1467835
1.3318682 -0.0551297 0.0935963 0.009888 0.009865 0.001185 -0.0280441 -0.2331679 2.6040894 9.5511030 4.1602946 -67.4622399 26.7593388
1.2395944 -0.0745053 0.0934986 0.002959 0.018791 0.000793 0.0737965 -0.0885657 2.3930911 5.5728086 1.2947244 -67.7617635 27.6641211
1.9268579 0.2361610 0.5501510 0.130002 -0.085772 -0.001688 -2.5363957 -3.8569574 0.6784598 57.2750224 44.1818971 -9.8517819 20.5520206
1.9397165 0.2068571 0.4765381 0.119409 -0.089500 -0.003654 -1.4573522 -1.9751697 0.7722790 59.5016985 40.9689474 -20.2793228 19.9834305
1.9345779 0.1732671 0.4036664 0.105897 -0.089381 -0.005023 -0.5520439 -0.6788028 0.4456809 59.3301472 36.8154650 -30.7487205 19.6969794
1.9119095 0.1364335 0.3347931 0.090284 -0.085356 -0.005663 -0.1307964 -0.1480466 0.1467406 56.7215464 32.0091109 -40.3967731 19.8481449
1.8729722 0.0979534 0.2727642 0.073661 -0.077494 -0.005348 -0.1324119 -0.1396314 0.1990079 52.1138926 26.7590686 -48.8019247 20.3081430
1.8198117 0.0595729 0.2195833 0.057379 -0.066688 -0.004334 -0.3371814 -0.3343582 0.6726480 46.0064908 21.4650009 -55.4991403 21.0700359
1.7549000 0.0228353 0.1762308 0.042207 -0.053730 -0.002967 -0.5289990 -0.4959445 1.4145171 39.1391137 16.3149209 -60.4532124 21.9814930
1.6807023 -0.0111192 0.1427633 0.028907 -0.039838 -0.001601 -0.5431904 -0.4807427 2.0035742 32.1263455 11.6273342 -63.8957708 23.0178167
1.5993391 -0.0415924 0.1185884 0.017413 -0.025760 -0.000548 -0.4620835 -0.3796911 2.4861407 25.3860518 7.3675407 -66.0079485 24.0501335
1.5123875 -0.0682463 0.1027534 0.007736 -0.012311 0.000050 -0.3036331 -0.2171585 2.6606560 19.2094967 3.6565564 -67.1641625 25.0611480
1.4207538 -0.0909619 0.0941926 -0.000334 0.000183 0.000173 -0.1446823 -0.0601324 2.7204952 13.6743837 0.3736418 -67.6427434 26.0322419
1.3245291 -0.1096444 0.0918851 -0.007025 0.011183 -0.000135 -0.0031833 0.0763703 2.6781651 8.8516340 -2.3925938 -67.6374231 26.9158836
2.0005248 0.1783655 0.5443098 0.112368 -0.103850 -0.002302 1.7933114 1.9481156 -0.4434099 68.8866713 38.4938328 -11.1641529 18.2670906
2.0073127 0.1429801 0.4654708 0.098667 -0.106638 -0.004362 3.7259437 3.5179022 -1.8411412 70.5855806 34.1365842 -22.9179243 17.6150101
1.9938021 0.1041898 0.3887793 0.082461 -0.104703 -0.005791 4.2946067 3.5574653 -3.2624800 69.0034933 29.0224583 -34.2275432 17.7156989
1.9610735 0.0636311 0.3180194 0.064789 -0.097722 -0.006085 3.6385992 2.6498537 -3.8787351 64.5389961 23.3963925 -44.3785532 18.0523607
1.9113390 0.0232368 0.2560993 0.047357 -0.086848 -0.005426 2.1923288 1.3917747 -3.1646019 57.6938766 17.7364988 -52.6131078 19.0226254
1.8475313 -0.0152208 0.2046772 0.031067 -0.072796 -0.004168 0.8885752 0.4782105 -1.7236648 49.6240757 12.2617742 -58.8140307 20.0272971
1.7726988 -0.0504266 0.1641889 0.017046 -0.057303 -0.002690 0.0162409 0.0068896 -0.0428708 41.0791871 7.3495188 -63.0573729 21.3988862
1.6895155 -0.0815913 0.1341512 0.005082 -0.041134 -0.001493 -0.3402519 -0.0910443 1.2644664 32.8432239 2.9570446 -65.6272714 22.5447721
1.5999994 -0.1083607 0.1135565 -0.004530 -0.025505 -0.000714 -0.3915813 -0.0036920 2.1912809 25.2066850 -0.7615073 -66.9588660 23.9255540
1.5054094 -0.1306485 0.1011939 -0.012431 -0.010864 -0.000511 -0.2646828 0.1434641 2.5686224 18.4962572 -3.9364662 -67.4465988 24.9396779
1.4062245 -0.1484493 0.0958738 -0.018523 0.002274 -0.000777 -0.1098885 0.2916828 2.8079325 12.5983893 -6.5692605 -67.3530823 26.1502340
2.0631556 0.1079787 0.5389261 0.088382 -0.121178 -0.002536 10.4181094 7.6332681 -2.4313384 80.5525516 30.3450201 -12.5109247 15.9377155
2.0613149 0.0671284 0.4558327 0.071718 -0.121871 -0.004626 12.1889136 7.3719206 -5.7426801 80.8722448 24.8767477 -25.2944388 15.6450396
2.0372894 0.0244889 0.3767018 0.053428 -0.116763 -0.005620 10.9447161 5.3765970 -8.0116143 77.2021502 18.9433986 -37.2671075 15.9792134
1.9931015 -0.0178349 0.3055834 0.034987 -0.106346 -0.005504 7.7134450 2.9415003 -8.0145717 70.2498568 12.9558612 -47.4355656 16.9245788
1.9320056 -0.0578544 0.2451425 0.017951 -0.091770 -0.004450 4.2066807 1.1088859 -5.9961055 61.1106499 7.2064149 -55.3235696 18.2115864
1.8576823 -0.0940887 0.1964769 0.003260 -0.074892 -0.003041 1.6298294 0.1994058 -3.1707216 51.0773504 2.1149704 -60.7923048 19.7173900
1.7735012 -0.1256797 0.1594088 -0.008808 -0.056941 -0.001764 0.1967635 -0.0135426 -0.5314365 41.0989649 -2.3016206 -64.1490948 21.2563259