# volRat = 0.650000
# viscRat = 5.000000
# alpha = 0.750000
# shRate = 3.175000
# tnum = 4400
# time = 3.637396
VARIABLES = X, Y, Z, U, V, W, F_B0, F_B1, F_B2, F_0, F_1, F_2, T
ZONE N=2562 E=5120 F=FEPOINT ET=TRIANGLE
1.6485826 0.3533742 0.6212299 0.154682 -0.037941 0.000005 5.4713274 22.5367281 0.0000043 31.7005721 68.2833829 -0.0032742 26.3907464
-1.6613520 0.5734693 0.6212299 0.150082 0.026778 0.000004 -3.8081507 21.3042643 0.0000050 -28.0643539 71.2129379 -0.0026159 25.4337061
1.6613520 -0.5734694 0.6212299 -0.150083 -0.026779 -0.000004 3.8081404 -21.3042065 0.0000046 28.0648541 -71.2126089 0.0025687 25.4330388
-1.6485826 -0.3533743 0.6212299 -0.154681 0.037941 -0.000005 -5.4713135 -22.5366708 0.0000046 -31.7010846 -68.2830556 0.0032171 26.3901711
0.9818377 -0.0306219 1.1276422 0.011869 0.033577 -0.002822 -2.1032920 2.1950681 22.0074638 -2.3046343 5.8763255 76.5063345 29.1501387
0.9818377 -0.0306219 0.1148176 0.011878 0.033606 0.002856 -2.1092610 2.2013408 -22.0700092 -2.3186238 5.8543061 -76.5686767 29.1533626
-0.9818377 0.0306219 1.1276421 -0.011878 -0.033607 -0.002851 2.1086678 -2.2006813 22.0637157 2.3179660 -5.8531530 76.5626239 29.1533993
-0.9818377 0.0306219 0.1148176 -0.011868 -0.033578 0.002813 2.1024134 -2.1941854 -21.9983498 2.3035846 -5.8749595 -76.4975356 29.1499953
-0.0438512 0.3483192 0.8405774 0.090416 -0.007406 0.003115 -7.7084334 -82.8171944 -47.7082332 -1.9003272 -17.8252005 -5.4824400 32.7542678
0.0438513 -0.3483182 0.8405768 -0.090274 0.009933 0.001456 6.7851313 72.9033009 -41.9813648 1.0388096 8.0343460 0.2990153 32.8158565
-0.0438513 0.3483183 0.4018829 0.090315 -0.009504 -0.001691 -6.8270969 -73.3543156 42.2409809 -1.0805060 -8.4684020 -0.0663846 32.8207295
0.0438512 -0.3483191 0.4018824 -0.090373 0.007859 -0.002863 7.6561226 82.2548859 47.3842290 1.8489889 17.2817967 5.1830318 32.7507115
1.6715951 0.3461414 0.6713021 0.154836 -0.040906 -0.000043 -4.2151653 -16.0758014 -1.4248178 29.0680960 48.7757415 5.4839047 26.1832308
1.6885058 0.3336866 0.7261065 0.151412 -0.043237 0.000133 -2.9569352 -10.4345509 -2.1123281 31.6261282 51.1890906 12.9689873 25.6600224
1.6964774 0.3162321 0.7835666 0.145728 -0.044297 0.000319 -2.8458775 -9.4491206 -3.1086898 32.3184139 49.4330096 20.3043396 25.4632139
1.6936550 0.2941306 0.8412907 0.137298 -0.043652 0.000514 -2.5650912 -8.1715400 -3.8577635 32.3887806 47.1996910 27.7968531 25.1074991
1.6791221 0.2679667 0.8971847 0.127163 -0.041267 0.000420 -2.2605895 -7.0686434 -4.4865584 31.3085072 44.1418268 34.9783564 25.1397963
1.6527183 0.2386299 0.9492899 0.115259 -0.036933 -0.000005 -1.8416812 -5.8055886 -4.7650101 29.4231110 40.6285185 41.6796934 25.0628629
1.6149446 0.2072144 0.9959883 0.102641 -0.030933 -0.000741 -1.4140385 -4.6420332 -4.8065854 26.6701406 36.7781721 47.6286898 25.3596064
1.5668163 0.1748768 1.0361416 0.089561 -0.023459 -0.001690 -1.0054745 -3.5847959 -4.6102777 23.4029519 32.7104651 52.6899954 25.5511851
1.5096719 0.1426896 1.0691482 0.076971 -0.015109 -0.002670 -0.6686425 -2.7487518 -4.3519622 19.6982197 28.6132126 56.7686269 26.0771951
1.4449882 0.1115372 1.0949052 0.064883 -0.006237 -0.003543 -0.3931843 -2.0587620 -4.0004905 15.9606795 24.5643482 59.9534010 26.4070203
1.3742385 0.0820672 1.1137032 0.053890 0.002545 -0.004148 -0.1846536 -1.5284224 -3.6552238 12.2299082 20.7283708 62.3921053 27.0530939
1.2988226 0.0546950 1.1261078 0.043732 0.010841 -0.004409 -0.0312002 -1.1153588 -3.3142670 8.7789550 17.0689162 64.1464129 27.4240247
1.2200943 0.0296462 1.1328492 0.034634 0.018320 -0.004297 0.0823936 -0.8545327 -3.2141964 5.5838593 13.6186614 65.2774071 28.0631975
1.1394663 0.0070102 1.1347617 0.026308 0.024726 -0.003815 0.1544605 -0.5704145 -2.8032325 2.8154565 10.4707196 66.3767693 28.3910733
1.0591402 -0.0130904 1.1327554 0.018876 0.029785 -0.003027 0.5076257 -0.9295071 -6.3661590 0.4232235 7.2326580 65.3149137 28.9877683
1.7727027 -0.5440554 0.6875425 -0.142052 -0.044118 -0.001329 -2.7173194 8.8003316 -1.1744081 37.1892407 -55.2345782 9.0361305 23.5336466
1.7896662 -0.5242651 0.7561677 -0.136067 -0.048059 -0.002039 -2.5678087 7.3730833 -2.1283587 39.5670668 -53.6837598 18.5698176 23.0746817
1.7939330 -0.4968083 0.8252052 -0.127769 -0.050346 -0.002731 -2.2733383 5.9297698 -2.7879845 40.5131072 -50.2749222 28.3502986 22.6778560
1.7848881 -0.4621186 0.8919673 -0.116978 -0.050509 -0.002965 -1.8495656 4.4685734 -3.0717866 39.9300919 -45.7624301 37.6292666 22.5353451
1.7623336 -0.4213804 0.9537910 -0.104300 -0.048312 -0.002625 -1.4399861 3.2791468 -3.1323588 37.9439028 -40.2706003 45.9383088 22.5380149
1.7268416 -0.3762748 1.0084309 -0.089948 -0.043564 -0.001868 -1.0710192 2.3369125 -3.0333232 34.7266685 -34.2940858 52.9190338 22.8234816
1.6796396 -0.3286923 1.0543637 -0.074847 -0.036567 -0.000884 -0.7977647 1.6945883 -2.9802807 30.6317354 -28.0502513 58.3857383 23.2671841
1.6223544 -0.2804526 1.0908900 -0.059515 -0.027739 0.000056 -0.5721435 1.2023993 -2.9105178 26.0552104 -21.9840830 62.3526742 23.8790636
1.5567332 -0.2331021 1.1180472 -0.044619 -0.017874 0.000690 -0.3968131 0.8403955 -2.9145979 21.3744179 -16.2181526 65.0097226 24.5870056
1.4844315 -0.1878265 1.1364269 -0.030480 -0.007626 0.000890 -0.2394321 0.5252782 -2.8393366 16.8266990 -10.9804317 66.6114134 25.3759688
1.4068897 -0.1454533 1.1469613 -0.017631 0.002162 0.000617 -0.1114834 0.2723704 -2.7973556 12.6580100 -6.2108456 67.4287677 26.1441890
1.3252796 -0.1065111 1.1507569 -0.006109 0.011097 -0.000055 -0.0050329 0.0583196 -2.6748173 8.9033351 -2.0292279 67.6838855 26.9210974
1.2404505 -0.0713016 1.1489612 0.003868 0.018696 -0.001008 0.0723216 -0.1051427 -2.3948386 5.6191348 1.6853784 67.7806164 27.6678840
1.1526257 -0.0400423 1.1426847 0.012296 0.024943 -0.002100 0.1420486 -0.2515712 -2.4919517 2.8240560 4.8281349 67.2152623 28.3263342
1.8580068 -0.5114703 0.6938155 -0.133721 -0.060678 -0.001217 -2.5195397 5.5859668 -0.9023005 47.9923451 -53.4271611 10.3411597 21.6898043
1.8738054 -0.4850910 0.7683227 -0.125889 -0.065455 -0.002442 -1.8787862 3.6724169 -1.2972792 50.5780677 -50.2205787 21.3255508 20.9612882
1.8737038 -0.4511353 0.8418361 -0.115074 -0.067395 -0.002968 -1.2418010 2.1825710 -1.2771384 50.9966997 -45.7495878 32.0128257 20.7620455
1.8578302 -0.4104729 0.9112737 -0.102222 -0.066617 -0.002981 -0.7215198 1.1551823 -1.0116180 49.4603597 -40.0375112 41.8902595 20.6104631
1.8268317 -0.3647731 0.9738078 -0.087243 -0.062514 -0.002438 -0.4799239 0.7053630 -0.8863241 45.9597633 -33.6687392 50.2984241 21.0029334
1.7821177 -0.3161022 1.0273327 -0.071561 -0.055522 -0.001441 -0.4182123 0.5648717 -1.0093470 41.1732085 -26.9369394 56.9073900 21.4049454
1.7256383 -0.2665210 1.0707143 -0.055411 -0.045920 -0.000422 -0.4654618 0.5720932 -1.4827819 35.4823099 -20.3669420 61.6443097 22.2787663
1.6595239 -0.2177927 1.1037643 -0.039783 -0.034748 0.000331 -0.4392725 0.4756727 -1.8975282 29.6257846 -14.1914310 64.8254080 23.0393578
1.5857649 -0.1712439 1.1270144 -0.024918 -0.022769 0.000606 -0.3838640 0.3336600 -2.3636933 23.8460587 -8.5954214 66.6363311 24.1141033
1.5060095 -0.1277685 1.1414485 -0.011525 -0.011020 0.000378 -0.2656814 0.1269297 -2.5589466 18.5616460 -3.5878267 67.4981018 24.9447769
1.4214456 -0.0879065 1.1482557 0.000598 0.000039 -0.000337 -0.1467323 -0.0779273 -2.7194930 13.7369052 0.7407225 67.6648323 26.0451343
1.3326737 -0.0519594 1.1486676 0.010826 0.009710 -0.001377 -0.0299792 -0.2512515 -2.6066539 9.6090324 4.5535979 67.4571979 26.7672216
1.2393856 -0.0201589 1.1438363 0.019608 0.017997 -0.002612 0.0661244 -0.4173127 -2.6936331 5.9383295 7.7598993 66.9070465 27.7818102
1.9388826 -0.4670854 0.6993776 -0.121577 -0.079390 -0.001392 -0.2201565 0.3395820 -0.0676010 60.2406360 -49.1339844 11.7438267 19.5111477
1.9508481 -0.4337848 0.7789198 -0.111031 -0.084083 -0.002245 1.1485643 -1.5409821 0.6869932 62.5633344 -44.7488069 23.8560307 18.9625081
1.9442177 -0.3933306 0.8560188 -0.097770 -0.085230 -0.002662 1.9732401 -2.3281660 1.7749071 62.0045474 -38.9249116 35.4923387 18.7387403
1.9196813 -0.3472632 0.9270608 -0.082449 -0.082323 -0.002220 1.9966683 -2.0740414 2.4696490 58.7331710 -32.2656640 45.6307472 18.9835045
1.8788139 -0.2977576 0.9891428 -0.066061 -0.075679 -0.001298 1.3617611 -1.2306488 2.2358297 53.2960106 -25.0903033 53.7773657 19.5751515
1.8239432 -0.2471093 1.0404918 -0.049245 -0.065607 -0.000253 0.5808597 -0.4410077 1.2546372 46.5105237 -18.0882058 59.7373538 20.4948814
1.7576977 -0.1973106 1.0805326 -0.032907 -0.053227 0.000552 -0.0233571 0.0136385 -0.0669461 39.2197585 -11.5047478 63.7016636 21.5562714
1.6825526 -0.1498445 1.1096593 -0.017555 -0.039513 0.000874 -0.3290239 0.1123892 -1.2834640 31.9957786 -5.6205864 65.9528242 22.7430877
1.6005227 -0.1056745 1.1288779 -0.003633 -0.025683 0.000615 -0.3924526 -0.0166349 -2.1855299 25.2741817 -0.4361167 66.9781717 23.9272740
1.5130088 -0.0653545 1.1394875 0.008657 -0.012481 -0.000182 -0.3063407 -0.2342562 -2.6639415 19.2777946 4.0013276 67.1560877 25.0654043
1.4207040 -0.0291832 1.1428452 0.019228 -0.000628 -0.001377 -0.1754965 -0.4567975 -2.9111062 14.0065359 7.8290495 66.8061969 26.1523471
1.3234590 0.0026155 1.1402424 0.027935 0.009727 -0.002817 -0.0414040 -0.6498734 -3.0051733 9.4774708 11.0053343 66.1369953 27.1574804
2.0120937 -0.4093271 0.7043684 -0.104030 -0.099094 -0.001158 5.6712420 -5.9999859 1.5426506 73.1101723 -42.3227314 13.0329301 17.2366740
2.0174756 -0.3692294 0.7878893 -0.090569 -0.102927 -0.001775 7.6826442 -6.8666297 4.1188144 74.5011278 -36.5587205 26.2135418 16.6591441
2.0019542 -0.3230887 0.8672147 -0.074800 -0.101855 -0.001457 7.6194160 -5.7159744 6.2078778 72.0773313 -29.7119396 38.2545444 16.8787811
1.9669980 -0.2731195 0.9383816 -0.057788 -0.096114 -0.000603 5.9303372 -3.6288054 6.7092701 66.5407356 -22.2855538 48.3591830 17.3901417
1.9152191 -0.2218145 0.9986681 -0.040393 -0.085869 0.000503 3.5149557 -1.6310195 5.3277125 58.7866905 -14.9691090 55.9675134 18.5360595
1.8498053 -0.1713948 1.0468509 -0.023675 -0.072530 0.001406 1.5075148 -0.4338706 3.0330610 50.0686630 -8.0979808 61.1390318 19.7188656
1.7738605 -0.1235015 1.0830041 -0.008008 -0.057145 0.001720 0.2021397 -0.0110416 0.5445548 41.1757732 -2.0289556 64.1635757 21.2646225
1.6899486 -0.0791655 1.1080756 0.005938 -0.041333 0.001422 -0.3413114 -0.0980398 -1.2636875 32.9146018 3.2588084 65.6153628 22.5522948
1.5998782 -0.0389410 1.1234464 0.018307 -0.025956 0.000446 -0.4660933 -0.3959835 -2.4940789 25.4557959 7.6916097 65.9695997 24.0641075
1.5046536 -0.0030957 1.1306258 0.028672 -0.011899 -0.000960 -0.3539277 -0.6869363 -3.0156192 19.0251783 11.4360897 65.6646346 25.2049874
1.4044808 0.0281994 1.1310661 0.037228 0.000458 -0.002659 -0.1956242 -0.9544503 -3.3269878 13.4744803 14.5176109 64.9517851 26.5107312
2.0731757 -0.3376544 0.7084617 -0.080058 -0.117974 -0.000702 15.7535548 -10.7823377 3.9127055 85.0767918 -32.5613613 14.1018972 15.0083924
2.0692931 -0.2917912 0.7945503 -0.063923 -0.119595 -0.000514 16.7535516 -9.0581405 8.2990691 84.4861846 -25.6909403 27.8232376 14.8641220
2.0428447 -0.2418334 0.8744160 -0.046313 -0.115311 0.000345 14.0465453 -5.6617448 10.6911760 79.6484232 -18.2437953 39.9780358 15.3969470
1.9963592 -0.1904119 0.9441078 -0.028580 -0.105602 0.001626 9.3080195 -2.3956667 9.9421830 71.5463297 -10.7902635 49.6181435 16.5530404
1.9334557 -0.1399440 1.0013960 -0.011564 -0.091753 0.002615 4.7468792 -0.4129533 6.8650835 61.5654952 -3.7777299 56.4868490 18.0454762
1.8579264 -0.0922168 1.0457445 0.004007 -0.075089 0.003018 1.6342420 0.2149014 3.1721080 51.1450816 2.3528687 60.7723397 19.7218418
1.7730278 -0.0483147 1.0778474 0.017852 -0.057494 0.002639 0.0134298 0.0058647 0.0353375 41.1427195 7.6123679 63.0142793 21.4051028
1.6811483 -0.0087729 1.0990822 0.029748 -0.040040 0.001524 -0.5492176 -0.4955631 -2.0167635 32.1923589 11.9149322 63.8284339 23.0278687
1.5837516 0.0261988 1.1110747 0.039766 -0.023973 -0.000118 -0.5762670 -0.9777676 -3.1260829 24.4007332 15.4997134 63.7477709 24.4986783
1.4814655 0.0565154 1.1154474 0.047790 -0.009653 -0.002091 -0.3955515 -1.3136955 -3.5511074 17.8024048 18.3946049 63.1755175 25.8569204
2.1169689 -0.2534547 0.7111744 -0.049657 -0.133361 0.000118 27.2866333 -10.2590494 6.3632192 93.9336727 -20.2637894 14.6988048 13.2203768
2.1016947 -0.2040278 0.7980467 -0.031624 -0.131413 0.001076 24.8898170 -5.9835577 11.7142055 90.8074740 -12.9457127 28.5556766 13.4836380
2.0632522 -0.1531045 0.8766513 -0.013556 -0.123007 0.002532 17.8804696 -1.7603591 13.0776171 83.2667548 -5.5644099 40.3260101 14.6997400
2.0052848 -0.1032345 0.9434550 0.003425 -0.109289 0.003825 10.1528949 0.6589852 10.5396628 72.8385340 1.3621066 49.2951213 16.2216517
1.9321189 -0.0563142 0.9969274 0.018628 -0.091949 0.004432 4.2044392 1.1335404 5.9799647 61.1627304 7.4076621 55.2776957 18.2250540
1.8477441 -0.0134604 1.0372049 0.031793 -0.072984 0.004129 0.8821687 0.4819156 1.7061827 49.6795725 12.4880764 58.7448570 20.0424300
1.7552443 0.0248276 1.0654590 0.042966 -0.053935 0.002910 -0.5378856 -0.5102346 -1.4325263 39.2023189 16.5661917 60.3594406 21.9966470
1.6566664 0.0584157 1.0833403 0.052160 -0.036052 0.001052 -0.8166701 -1.2944226 -3.0991530 30.1092502 19.8702654 60.8027197 23.5663127
1.5531209 0.0873141 1.0925998 0.059459 -0.020001 -0.001204 -0.6744691 -1.8350636 -3.9034609 22.3962256 22.4624108 60.5368686 25.2142647
2.1388197 -0.1606362 0.7120521 -0.014252 -0.142310 0.001041 34.2845528 -3.4956174 7.7058937 97.9858507 -6.6530171 14.7932799 12.3289540
2.1112559 -0.1108000 0.7977550 0.004043 -0.136017 0.002772 26.9187894 0.9643355 12.3556876 92.1889953 0.4931838 28.2822313 13.2711462
2.0612000 -0.0621498 0.8734826 0.020919 -0.123528 0.004447 16.5670081 3.1873760 11.9560069 82.3409925 7.2436129 39.3513145 14.9143860
1.9930766 -0.0166334 0.9363974 0.035575 -0.106490 0.005488 7.6965510 2.9654561 7.9795146 70.2805185 13.1140307 47.3712699 16.9381573
1.9114292 0.0246274 0.9856844 0.047981 -0.087009 0.005394 2.1795284 1.3951224 3.1369995 57.7359518 17.9154398 52.5247451 19.0337158
1.8200501 0.0611817 1.0220014 0.058043 -0.066877 0.004286 -0.3489603 -0.3485208 -0.6934928 46.0598528 21.6679447 55.3883837 21.0816115
1.7216538 0.0929729 1.0468234 0.066201 -0.047663 0.002329 -1.0841266 -1.6683252 -3.0244035 35.7308535 24.5934917 56.6703789 22.9451391
1.6179153 0.1201037 1.0619397 0.072390 -0.030230 -0.000082 -0.9995949 -2.4266074 -4.0821722 27.0129492 26.8486465 56.9768039 24.6131941
2.1361971 -0.0652408 0.7108829 0.022999 -0.142840 0.001919 32.0580026 5.1564968 7.1197882 96.6951161 6.9899117 14.4115725 12.5886588
2.0970662 -0.0182969 0.7936234 0.039741 -0.132507 0.004041 21.5418938 6.6992160 9.8860246 88.5701336 13.4642089 27.1410010 13.9477300
2.0371348 0.0253670 0.8652718 0.053905 -0.116869 0.005604 10.9097848 5.3875139 7.9675303 77.2146432 19.0616375 37.1985041 15.9992925
1.9610453 0.0646564 0.9237400 0.065296 -0.097863 0.006052 3.6194568 2.6479886 3.8468599 64.5672501 23.5335637 44.2837275 18.0711790
1.8731075 0.0991720 0.9687822 0.074208 -0.077671 0.005305 -0.1459867 -0.1545925 -0.2185773 52.1582296 26.9187260 48.6827636 20.3267699
1.7767052 0.1289277 1.0013993 0.081031 -0.057824 0.003489 -1.3695506 -2.1034796 -2.8819992 41.0055858 29.4333774 51.1337283 22.1975394
1.6741518 0.1540981 1.0232350 0.086087 -0.039568 0.001047 -1.4189242 -3.2354315 -4.2912242 31.4019767 31.2796529 52.2632119 24.1068745
2.1097339 0.0261553 0.7078168 0.058321 -0.135156 0.002422 22.0722380 9.5502603 4.9606521 90.4357160 19.6794800 13.6227042 13.9102021
2.0610611 0.0677242 0.7862244 0.072090 -0.121946 0.004607 12.1425731 7.3638504 5.7063349 80.8675214 24.9583071 25.2370251 15.6635518
1.9936757 0.1048804 0.8530411 0.082850 -0.104817 0.005757 4.2718944 3.5471591 3.2350196 69.0176986 29.1156647 34.1403215 17.7314608
1.9119548 0.1372814 0.9067928 0.090703 -0.085515 0.005624 -0.1437729 -0.1630980 -0.1606690 56.7585598 32.1209608 40.2808566 19.8594635
1.8197755 0.1649899 0.9476288 0.096409 -0.065954 0.004184 -1.7714834 -2.7775867 -2.8349762 45.2628383 34.2320985 44.1813268 21.8877711
1.7201090 0.1882227 0.9767745 0.100200 -0.047465 0.001948 -1.8717067 -4.1570646 -4.2988136 35.2342029 35.7270163 46.4461276 23.7457443
2.0628545 0.1083592 0.7032996 0.088655 -0.121241 0.002521 10.3762554 7.6131703 2.4146842 80.5440783 30.3996831 12.4784893 15.9603008
2.0071254 0.1433938 0.7764963 0.098936 -0.106746 0.004340 3.7075491 3.5043593 1.8258067 70.5959752 34.1978897 22.8486895 17.6337070
1.9345583 0.1737905 0.8380405 0.106194 -0.089535 0.004988 -0.5606443 -0.6900178 -0.4507619 59.3619030 36.8908094 30.6488050 19.7131843
1.8490971 0.1996512 0.8868862 0.110923 -0.071185 0.004232 -2.2317784 -3.6450011 -2.6883234 48.3049202 38.7086115 36.0712053 21.5810979
1.7542564 0.2211900 0.9234862 0.113843 -0.053340 0.002437 -2.3893529 -5.3189970 -4.1996372 38.1729104 39.8647621 39.5396984 23.5228968
2.0003280 0.1785822 0.6978774 0.112555 -0.103962 0.002285 1.7825592 1.9370149 0.4390921 68.8936713 38.5290853 11.1278557 18.2800307
1.9396677 0.2071257 0.7653653 0.119603 -0.089652 0.003623 -1.4596203 -1.9783683 -0.7700654 59.5323013 41.0121736 20.2071115 19.9930807
1.8634914 0.2314221 0.8212950 0.124113 -0.073515 0.003589 -2.8443615 -4.9317276 -2.4838910 49.5154639 42.6448867 27.0457842 21.7717680
1.7755099 0.2516606 0.8649518 0.126350 -0.056900 0.002380 -2.8819536 -6.5878762 -3.8340609 39.9381096 43.5899772 31.8195340 23.5350302
1.9268248 0.2362604 0.6920100 0.130118 -0.085938 0.001675 -2.5329429 -3.8497515 -0.6742783 57.3116674 44.2081671 9.8125930 20.5633776
1.8625105 0.2591397 0.7534419 0.134502 -0.072547 0.002342 -3.4070483 -6.3916181 -1.9659200 49.0709264 45.7243705 17.7475037 21.9810194
1.7834413 0.2784476 0.8032635 0.136784 -0.058030 0.001900 -3.2912591 -7.8934063 -3.1882234 40.4677090 46.6610710 23.6389903 23.6985753
1.8461218 0.2822829 0.6859601 0.142345 -0.068975 0.001126 -3.8218007 -7.9227656 -1.1187762 46.7980128 48.1010023 8.5184708 22.7054434
1.7783452 0.3007183 0.7407347 0.144778 -0.056906 0.001147 -3.5567501 -9.1318869 -2.2820549 39.6518956 48.9084764 15.2882225 24.0779939
1.7608624 0.3182084 0.6795734 0.149981 -0.053682 0.000188 -3.5658323 -10.0116499 -1.1596300 37.7202188 50.2138974 7.4191304 24.5260288
1.7299428 0.3317998 0.6212299 0.152796 -0.048358 -0.000003 -3.6128827 -11.4803273 -0.0000000 34.8213728 51.3774229 -0.0008141 25.2463049
1.8135092 0.3013120 0.6212299 0.147046 -0.062645 0.000006 -3.6797120 -8.6635267 -0.0000000 43.1165438 49.5778559 -0.0023170 23.3491811
1.8958537 0.2610444 0.6212299 0.137441 -0.078825 -0.000002 -3.4261310 -5.9803189 0.0000000 52.9839440 46.5209343 -0.0002571 21.5143617
1.9733092 0.2095505 0.6212299 0.122918 -0.096732 0.000000 -0.5443203 -0.6912457 0.0000000 64.2982134 41.9058863 0.0000013 19.1537902
2.0421957 0.1456063 0.6212299 0.102214 -0.114837 0.000001 6.2583108 5.5574981 -0.0000001 76.2858055 34.9537355 -0.0005668 16.8750826
2.0979899 0.0689595 0.6212299 0.074943 -0.131079 -0.000000 17.6437658 10.0401214 -0.0000002 87.5991499 25.4458207 0.0000351 14.5051514
2.1356413 -0.0187859 0.6212299 0.041619 -0.142498 -0.000001 30.1484876 8.7140507 -0.0000004 96.0831657 13.5357273 0.0002431 12.8232072
2.1506907 -0.1135321 0.6212299 0.004513 -0.146293 0.000001 37.4253259 1.0305801 -0.0000005 100.0688103 0.1279342 -0.0003473 11.8641072
2.1408856 -0.2090691 0.6212299 -0.032682 -0.141354 -0.000001 34.4962221 -8.1008879 -0.0000004 98.6787196 -13.7439647 0.0003683 12.3169449
2.1072605 -0.2987017 0.6212299 -0.066242 -0.128683 -0.000001 23.6630613 -12.2774458 -0.0000003 91.9988707 -26.9866054 0.0001887 13.6469776
2.0537406 -0.3772341 0.6212299 -0.093719 -0.110882 0.000000 11.3212122 -9.6215340 -0.0000001 81.0972897 -38.2358227 -0.0000300 15.8512940
1.9856242 -0.4420248 0.6212299 -0.114449 -0.090999 -0.000001 2.6411040 -3.3359123 -0.0000000 68.1317162 -46.5707428 0.0004456 18.0949817
1.9080964 -0.4927473 0.6212299 -0.129253 -0.071513 -0.000002 -1.5956268 2.8935320 0.0000000 55.2842524 -52.0008276 0.0010468 20.4737556
1.8255245 -0.5305246 0.6212299 -0.139152 -0.053756 0.000001 -2.6890912 6.9776848 0.0000000 43.6361651 -55.1153096 -0.0004666 22.3514921
1.7420519 -0.5570279 0.6212299 -0.145808 -0.038138 -0.000005 -2.7217526 10.4214662 0.0000000 33.8741926 -57.1017089 0.0034638 24.2722466
1.6839437 -0.5671679 0.5636658 -0.146969 -0.029690 0.000666 -2.9385005 14.5791071 1.5042241 27.5161125 -54.2466458 -6.8366145 25.2178446
1.7002776 -0.5532414 0.5012655 -0.142956 -0.032714 0.001285 -2.1639750 9.5442808 2.2482395 30.0215273 -55.5622772 -15.7543912 24.6775077
1.7075150 -0.5316842 0.4367084 -0.136409 -0.034722 0.001965 -2.0457597 8.2138148 3.1595882 30.9363316 -53.1535666 -24.5261892 24.4741608
1.7038058 -0.5028212 0.3729530 -0.127987 -0.035414 0.002230 -1.8127948 6.7845444 3.7835221 31.0748494 -49.6797978 -33.1704050 24.0989617
1.6882730 -0.4674275 0.3125073 -0.117084 -0.034283 0.002115 -1.5214120 5.4414866 4.1496990 30.0148607 -45.2031728 -41.2201429 24.1268184
1.6608325 -0.4267675 0.2575946 -0.104658 -0.031212 0.001527 -1.1708321 4.1125456 4.1609072 28.0401805 -40.0459730 -48.3334348 24.0734014
1.6220748 -0.3824225 0.2099197 -0.090820 -0.026146 0.000661 -0.8554285 3.0472654 4.0361391 25.1693835 -34.4545899 -54.2373704 24.4118851
1.5730884 -0.3360792 0.1705384 -0.076529 -0.019419 -0.000299 -0.5748128 2.1668897 3.7560992 21.8252577 -28.7245959 -58.8866100 24.6616341
1.5152454 -0.2893257 0.1398406 -0.061914 -0.011410 -0.001106 -0.3570292 1.5228053 3.4984054 18.1100692 -23.1380163 -62.3168624 25.2919251
1.4500079 -0.2435134 0.1176384 -0.047904 -0.002855 -0.001576 -0.1844611 1.0212115 3.2008981 14.4415731 -17.8186475 -64.6904700 25.7217899
1.3787922 -0.1996951 0.1033189 -0.034546 0.005706 -0.001624 -0.0575557 0.6703466 3.0300900 10.8656757 -12.8973545 -66.1811592 26.4839647
1.3029088 -0.1586308 0.0959920 -0.022402 0.013709 -0.001261 0.0397552 0.3824463 2.7836416 7.6173378 -8.4359523 -67.0709816 26.9841638
1.2236035 -0.1208395 0.0946198 -0.011485 0.020689 -0.000555 0.1210717 0.1841189 2.8525065 4.6921888 -4.4016135 -67.3154994 27.7547015
1.1421703 -0.0866600 0.0980816 -0.002143 0.026427 0.000372 0.1445914 0.0021074 2.2015261 2.2283025 -0.8441535 -67.7568589 28.1739364
1.0607191 -0.0564996 0.1051452 0.005852 0.030831 0.001541 0.5105892 -0.3393024 6.0307149 0.1346912 2.2234342 -66.1672884 28.9139817
1.7608624 0.3182084 0.5628864 0.149995 -0.053685 -0.000188 -3.5659010 -10.0118427 1.1596522 37.7156159 50.2140664 -7.4182278 24.5229040
1.7783452 0.3007183 0.5017250 0.144779 -0.056906 -0.001149 -3.5567130 -9.1317918 2.2820311 39.6508464 48.9089997 -15.2891813 24.0804240
1.7834413 0.2784476 0.4391962 0.136787 -0.058029 -0.001900 -3.2913208 -7.8935545 3.1882832 40.4670455 46.6598421 -23.6391076 23.6942643
1.7755099 0.2516606 0.3775079 0.126348 -0.056901 -0.002383 -2.8819219 -6.5878038 3.8340187 39.9384516 43.5906768 -31.8184646 23.5371263
1.7542564 0.2211900 0.3189735 0.113849 -0.053339 -0.002434 -2.3893977 -5.3190969 4.1997160 38.1705190 39.8631488 -39.5412694 23.5197648
1.7201090 0.1882227 0.2656852 0.100196 -0.047465 -0.001950 -1.8716983 -4.1570460 4.2987943 35.2356374 35.7279432 -46.4443619 23.7473199
1.6741518 0.1540981 0.2192248 0.086091 -0.039565 -0.001046 -1.4189459 -3.2354809 4.2912898 31.4005158 31.2773133 -52.2645285 24.1020075
1.6179153 0.1201037 0.1805200 0.072392 -0.030232 0.000080 -0.9996074 -2.4266380 4.0822236 27.0118766 26.8513770 -56.9748182 24.6171182
1.5531209 0.0873141 0.1498599 0.059460 -0.019996 0.001205 -0.6744789 -1.8350902 3.9035175 22.3954632 22.4581633 -60.5383452 25.2078779
1.4814655 0.0565154 0.1270124 0.047790 -0.009661 0.002087 -0.3955590 -1.3137203 3.5511745 17.8026750 18.4008339 -63.1725915 25.8586866
1.4044808 0.0281994 0.1113936 0.037235 0.000461 0.002659 -0.1956515 -0.9545836 3.3274525 13.4702067 14.5131707 -64.9523547 26.5072948
1.3234590 0.0026155 0.1022173 0.027930 0.009719 0.002815 -0.0413901 -0.6496551 3.0041638 9.4801765 11.0130646 -66.1357728 27.1572739
1.2393855 -0.0201589 0.0986234 0.019607 0.017992 0.002611 0.0661671 -0.4175816 2.6953692 5.9367793 7.7594860 -66.9052795 27.7753609
1.1526257 -0.0400423 0.0997750 0.012297 0.024920 0.002094 0.1421904 -0.2518222 2.4944383 2.8233126 4.8426669 -67.2107462 28.3307858
1.8461218 0.2822829 0.5564996 0.142335 -0.068974 -0.001135 -3.8217361 -7.9226316 1.1187573 46.8018142 48.1010915 -8.5145205 22.7075992
1.8625105 0.2591397 0.4890178 0.134504 -0.072547 -0.002338 -3.4070736 -6.3916656 1.9659346 49.0705243 45.7237724 -17.7497286 21.9799347
1.8634914 0.2314221 0.4211647 0.124110 -0.073518 -0.003593 -2.8443022 -4.9316248 2.4838392 49.5162648 42.6464335 -27.0443420 21.7751987
1.8490971 0.1996512 0.3555735 0.110922 -0.071183 -0.004231 -2.2317973 -3.6450320 2.6883462 48.3053503 38.7073417 -36.0726899 21.5791517
1.8197755 0.1649899 0.2948310 0.096406 -0.065959 -0.004189 -1.7714388 -2.7775169 2.8349050 45.2642084 34.2343912 -44.1795817 21.8908332
1.7767052 0.1289277 0.2410604 0.081033 -0.057822 -0.003486 -1.3695549 -2.1034862 2.8820083 41.0044138 29.4317015 -51.1358499 22.1969216
1.7216538 0.0929729 0.1956363 0.066195 -0.047668 -0.002332 -1.0840942 -1.6682755 3.0243134 35.7333384 24.5959402 -56.6690004 22.9482049
1.6566664 0.0584157 0.1591194 0.052158 -0.036049 -0.001050 -0.8166639 -1.2944128 3.0991295 30.1094763 19.8675329 -60.8043047 23.5642291
1.5837516 0.0261988 0.1313850 0.039765 -0.023979 0.000117 -0.5762411 -0.9777236 3.1259422 24.4014761 15.5028235 -63.7474156 24.5049533
1.5046536 -0.0030957 0.1118340 0.028667 -0.011889 0.000962 -0.3539265 -0.6869340 3.0156093 19.0263874 11.4293248 -65.6663206 25.2021894
1.4207040 -0.0291832 0.0996145 0.019225 -0.000638 0.001377 -0.1754759 -0.4567438 2.9107641 14.0088301 7.8335206 -66.8064221 26.1571993
1.3326737 -0.0519594 0.0937922 0.010830 0.009724 0.001378 -0.0299820 -0.2512755 2.6069034 9.6065167 4.5429270 -67.4577634 26.7682900
1.2404505 -0.0713016 0.0934986 0.003868 0.018698 0.001009 0.0723037 -0.1051167 2.3942455 5.6209515 1.6827136 -67.7822024 27.6723233
1.9268248 0.2362604 0.5504498 0.130125 -0.085939 -0.001672 -2.5330112 -3.8498553 0.6742965 57.3089637 44.2083555 -9.8135794 20.5613889
1.9396677 0.2071257 0.4770944 0.119600 -0.089651 -0.003627 -1.4595954 -1.9783346 0.7700523 59.5331942 41.0120670 -20.2061788 19.9936615
1.9345583 0.1737905 0.4044192 0.106197 -0.089534 -0.004987 -0.5607153 -0.6901053 0.4508191 59.3605999 36.8901175 -30.6490833 19.7103488
1.9119548 0.1372814 0.3356669 0.090703 -0.085515 -0.005624 -0.1437498 -0.1630718 0.1606432 56.7581668 32.1214689 -40.2807670 19.8613710
1.8731075 0.0991720 0.2736776 0.074210 -0.077670 -0.005304 -0.1460472 -0.1546566 0.2186680 52.1574865 26.9171935 -48.6829292 20.3230965
1.8200501 0.0611817 0.2204583 0.058042 -0.066878 -0.004288 -0.3489508 -0.3485113 0.6934739 46.0603467 21.6692196 -55.3874353 21.0826519
1.7552443 0.0248276 0.1770008 0.042973 -0.053934 -0.002908 -0.5379338 -0.5102803 1.4326546 39.1992863 16.5646984 -60.3600466 21.9940530
1.6811483 -0.0087729 0.1433775 0.029746 -0.040042 -0.001525 -0.5492170 -0.4955625 2.0167614 32.1935396 11.9168545 -63.8274574 23.0281616
1.5998782 -0.0389410 0.1190134 0.018310 -0.025958 -0.000447 -0.4661286 -0.3960135 2.4942679 25.4535284 7.6915396 -65.9691924 24.0591440
1.5130088 -0.0653545 0.1029722 0.008658 -0.012487 0.000181 -0.3063385 -0.2342545 2.6639226 19.2773675 4.0056889 -67.1556063 25.0678610
1.4214456 -0.0879065 0.0942041 0.000600 0.000038 0.000336 -0.1467483 -0.0779358 2.7197887 13.7350586 0.7402568 -67.6642388 26.0389773
1.3252796 -0.1065111 0.0917028 -0.006118 0.011081 0.000055 -0.0050326 0.0583167 2.6746817 8.9071986 -2.0176958 -67.6844539 26.9199300
2.0003280 0.1785822 0.5445823 0.112551 -0.103962 -0.002289 1.7826297 1.9370916 -0.4391095 68.8954381 38.5291170 -11.1268354 18.2818350
2.0071254 0.1433938 0.4659635 0.098939 -0.106747 -0.004336 3.7075334 3.5043445 -1.8257991 70.5951032 34.1979192 -22.8502729 17.6335820
1.9936757 0.1048804 0.3894186 0.082845 -0.104819 -0.005761 4.2719666 3.5472191 -3.2350744 69.0194730 29.1162854 -34.1392235 17.7333615
1.9610453 0.0646564 0.3187197 0.065297 -0.097863 -0.006052 3.6194391 2.6479757 -3.8468412 64.5670651 23.5331302 -44.2842479 18.0701854
1.9114292 0.0246274 0.2567753 0.047979 -0.087012 -0.005395 2.1795947 1.3951648 -3.1370950 57.7366744 17.9167416 -52.5248945 19.0371953
1.8477441 -0.0134604 0.2052548 0.031792 -0.072982 -0.004129 0.8821605 0.4819111 -1.7061667 49.6800040 12.4864952 -58.7451069 20.0410028
1.7730278 -0.0483147 0.1646123 0.017846 -0.057499 -0.002640 0.0134863 0.0058894 -0.0354862 41.1450589 7.6139067 -63.0142704 21.4082119
1.6899486 -0.0791655 0.1343841 0.005940 -0.041328 -0.001421 -0.3413160 -0.0980411 1.2637046 32.9133161 3.2556511 -65.6158113 22.5528739
1.6005227 -0.1056744 0.1135818 -0.003639 -0.025683 -0.000615 -0.3924145 -0.0166333 2.1853177 25.2769923 -0.4366117 -66.9788283 23.9309871
1.5060095 -0.1277685 0.1010113 -0.011525 -0.011016 -0.000379 -0.2656877 0.1269327 2.5590071 18.5617930 -3.5918248 -67.4974069 24.9433980
1.4068897 -0.1454533 0.0954984 -0.017630 0.002165 -0.000616 -0.1114733 0.2723458 2.7971026 12.6578510 -6.2142656 -67.4294454 26.1519627
2.0628545 0.1083592 0.5391601 0.088657 -0.121242 -0.002523 10.3761775 7.6131132 -2.4146663 80.5429462 30.3997196 -12.4778413 15.9584651
2.0610611 0.0677242 0.4562353 0.072089 -0.121945 -0.004610 12.1425865 7.3638586 -5.7063415 80.8679426 24.9580710 -25.2366320 15.6637842
2.0371348 0.0253670 0.3771880 0.053909 -0.116870 -0.005602 10.9097069 5.3874755 -7.9674737 77.2128740 19.0615054 -37.1992055 15.9976925
1.9930766 -0.0166334 0.3060623 0.035573 -0.106489 -0.005491 7.6965624 2.9654605 -7.9795267 70.2812969 13.1138694 -47.3706388 16.9383557
1.9321189 -0.0563142 0.2455323 0.018632 -0.091950 -0.004432 4.2043684 1.1335213 -5.9798641 61.1612960 7.4075427 -55.2775375 18.2222222
1.8579264 -0.0922168 0.1967152 0.004009 -0.075090 -0.003018 1.6342479 0.2149022 -3.1721195 51.1445826 2.3535101 -60.7725607 19.7231058
1.7738605 -0.1235015 0.1594557 -0.008004 -0.057146 -0.001721 0.2020837 -0.0110386 -0.5444038 41.1739709 -2.0287265 -64.1632609 21.2607682