# volRat = 0.650000
# viscRat = 5.000000
# alpha = 0.750000
# shRate = 3.175000
# tnum = 1000
# time = 0.760000
VARIABLES = X, Y, Z, U, V, W, F_B0, F_B1, F_B2, F_0, F_1, F_2, T
ZONE N=2562 E=5120 F=FEPOINT ET=TRIANGLE
1.6364898 0.3644280 0.6212299 0.156606 -0.054951 0.000000 4.2710856 17.6617046 0.0000035 30.6489997 63.9604400 -0.0000259 27.2294556
-1.6922857 0.5674437 0.6212299 0.149529 0.044144 0.000000 -3.6914631 16.2665967 0.0000036 -31.7086125 66.6984490 -0.0000208 25.5822339
1.6922857 -0.5674437 0.6212299 -0.149529 -0.044143 -0.000000 3.6914662 -16.2666103 0.0000036 31.7086234 -66.6984729 0.0000103 25.5822788
-1.6364898 -0.3644280 0.6212299 -0.156606 0.054951 -0.000000 -4.2710890 -17.6617189 0.0000036 -30.6489985 -63.9604643 0.0000075 27.2294913
1.0021053 -0.0043634 1.1307104 0.010959 0.027390 -0.006636 -1.6211651 2.4560425 15.6633597 -2.1839447 8.6474375 70.3185736 29.8256047
1.0021053 -0.0043634 0.1117493 0.010959 0.027390 0.006636 -1.6211130 2.4559907 -15.6629042 -2.1838471 8.6473595 -70.3181491 29.8255848
-1.0021053 0.0043634 1.1307104 -0.010959 -0.027390 -0.006636 1.6211496 -2.4560189 15.6632099 2.1839224 -8.6473453 70.3184431 29.8256156
-1.0021053 0.0043634 0.1117493 -0.010959 -0.027390 0.006636 1.6211224 -2.4560049 -15.6629949 2.1838829 -8.6476795 -70.3181823 29.8255650
-0.0088654 0.3385597 0.8312812 0.088698 -0.002632 0.004414 -10.0240442 -120.8829971 -68.2695712 -4.1410436 -47.1128795 -21.9196531 33.2980877
0.0088654 -0.3385597 0.8312812 -0.088700 0.002617 0.004419 10.0199971 120.8340612 -68.2412341 4.1371157 47.0634664 -21.8884968 33.2990787
-0.0088654 0.3385597 0.4111786 0.088703 -0.002590 -0.004434 -10.0193479 -120.8262087 68.2369140 -4.1369280 -47.0537049 21.8833931 33.2988209
0.0088654 -0.3385597 0.4111786 -0.088702 0.002598 -0.004430 10.0195820 120.8289493 68.2385602 4.1371451 47.0568159 21.8856928 33.2987106
1.6576853 0.3579568 0.6672216 0.156870 -0.058273 -0.000618 -3.5477434 -13.6593888 -1.0920402 30.0327033 53.1466007 5.2790656 27.0645346
1.6735978 0.3471664 0.7176818 0.154179 -0.060474 -0.001079 -2.8527589 -10.2207628 -1.8638213 31.9342266 53.4706151 12.1002077 26.5617810
1.6816510 0.3322581 0.7709634 0.149581 -0.061435 -0.001515 -2.7288306 -9.2488398 -2.7309412 32.6563765 52.0790064 19.0052137 26.4151787
1.6800823 0.3134495 0.8251366 0.142545 -0.060655 -0.001929 -2.5122476 -8.2107724 -3.4620353 32.7842910 50.1258684 26.1112765 26.0649962
1.6678980 0.2910788 0.8784919 0.133821 -0.058414 -0.002652 -2.2443536 -7.2327692 -4.0746703 31.8772432 47.5485845 33.0941697 26.1125926
1.6447331 0.2656914 0.9293327 0.123231 -0.054314 -0.003717 -1.8782490 -6.1261657 -4.4283254 30.1877587 44.4657779 39.7458302 26.0209823
1.6108056 0.2379940 0.9761344 0.111636 -0.048523 -0.005106 -1.4852915 -5.0597794 -4.5704548 27.6322037 41.0325544 45.8345471 26.2994103
1.5668232 0.2087757 1.0176758 0.099127 -0.041118 -0.006760 -1.0900085 -4.0370044 -4.4777531 24.5279420 37.3047484 51.2130990 26.4468980
1.5138400 0.1788181 1.0531238 0.086589 -0.032579 -0.008482 -0.7465934 -3.1794106 -4.2831609 20.9022737 33.4527173 55.7564562 26.9418571
1.4530996 0.1488289 1.0820474 0.074014 -0.023155 -0.010117 -0.4548530 -2.4370998 -3.9658801 17.1412960 29.5068687 59.4888586 27.2236384
1.3859018 0.1194069 1.1043694 0.062039 -0.013408 -0.011405 -0.2283888 -1.8497440 -3.6352419 13.2753590 25.6391077 62.4730364 27.8298966
1.3135228 0.0910398 1.1202968 0.050495 -0.003726 -0.012163 -0.0579962 -1.3784082 -3.2891255 9.5893770 21.8240929 64.7393960 28.1693390
1.2372273 0.0641252 1.1302456 0.039721 0.005506 -0.012332 0.0667349 -1.0553863 -3.0947050 6.0747333 18.1300554 66.3674998 28.7795183
1.1583604 0.0389938 1.1348038 0.029518 0.013865 -0.012090 0.1344220 -0.6617765 -2.4336709 2.9409082 14.7111751 67.9877907 29.0846434
1.0790707 0.0160638 1.1347157 0.020165 0.021086 -0.010727 0.4445876 -1.1005998 -5.2852093 0.0830404 11.1548406 67.8621522 29.6655566
1.8046720 -0.5307549 0.6928312 -0.137850 -0.063471 -0.002169 -2.6379413 6.9770589 -1.0294688 43.1933288 -56.2367423 10.1282566 23.4690281
1.8203272 -0.5075472 0.7663709 -0.130343 -0.068008 -0.003420 -2.4255349 5.6970206 -1.8296627 45.5459902 -53.7692848 20.6102135 22.9947726
1.8223449 -0.4759655 0.8395109 -0.120464 -0.070411 -0.004677 -1.9378208 4.1172948 -2.1720938 46.3476341 -49.6683589 31.2890219 22.5957714
1.8103220 -0.4367502 0.9091678 -0.108166 -0.070247 -0.005417 -1.4231625 2.7704958 -2.1630734 45.3482093 -44.3531446 41.2172513 22.4919373
1.7843917 -0.3915106 0.9724639 -0.094218 -0.067362 -0.005605 -1.0216881 1.8388981 -2.0304053 42.7852070 -38.0642023 49.9016402 22.5689218
1.7455231 -0.3423642 1.0271653 -0.078901 -0.061637 -0.005509 -0.7359799 1.2309076 -1.8946555 38.9041143 -31.3626295 57.0009690 22.9516011
1.6953261 -0.2915628 1.0719661 -0.063289 -0.053526 -0.005326 -0.5748017 0.8924371 -1.9338802 34.1370343 -24.5370982 62.3708578 23.4976990
1.6357308 -0.2411605 1.1065145 -0.047970 -0.043598 -0.005323 -0.4584961 0.6530794 -2.0693347 28.9205345 -18.0311774 66.0718762 24.2193772
1.5686774 -0.1927973 1.1312366 -0.033556 -0.032761 -0.005673 -0.3503378 0.4412945 -2.2283812 23.6866909 -11.9933021 68.4539302 25.0214761
1.4959020 -0.1476230 1.1470750 -0.020367 -0.021632 -0.006385 -0.2374894 0.2347164 -2.3351135 18.6350084 -6.6128222 69.7150290 25.8857496
1.4188261 -0.1063266 1.1552274 -0.008877 -0.011049 -0.007355 -0.1302433 0.0436193 -2.4347238 14.0194079 -1.8161456 70.1909309 26.7175511
1.3385177 -0.0692306 1.1569562 0.001018 -0.001282 -0.008456 -0.0278127 -0.1275475 -2.4035111 9.8458106 2.3162236 70.1457204 27.5372225
1.2556473 -0.0364063 1.1534552 0.009158 0.007298 -0.009461 0.0575817 -0.2661077 -2.3242968 6.1704565 5.9007136 69.8073385 28.3124964
1.1701821 -0.0078716 1.1457905 0.015659 0.014733 -0.010232 0.1239802 -0.3692308 -2.2060277 2.9711393 8.8821375 69.0480683 28.9910195
1.8893758 -0.4914770 0.6991210 -0.125892 -0.082737 -0.001782 -1.7777253 3.2556061 -0.5892076 54.9042296 -53.0046288 11.4396350 21.4802773
1.9029977 -0.4610611 0.7782266 -0.116257 -0.087832 -0.003528 -0.7853035 1.2629222 -0.5044570 57.4044764 -49.0333616 23.4504833 20.7437739
1.8997521 -0.4226623 0.8551502 -0.103749 -0.089473 -0.004402 -0.0155615 0.0222565 -0.0149255 57.3927134 -43.7274650 34.9042210 20.5896100
1.8801409 -0.3775187 0.9265060 -0.089476 -0.087955 -0.004756 0.4200673 -0.5362904 0.5491997 55.1862162 -37.1847606 45.2468111 20.5329624
1.8452861 -0.3277348 0.9894187 -0.073408 -0.082697 -0.004711 0.4074518 -0.4617149 0.6997373 50.8956532 -30.0964513 53.8261045 21.0390854
1.7970715 -0.2757532 1.0419857 -0.057202 -0.074436 -0.004410 0.1572544 -0.1549969 0.3508902 45.2933865 -22.7776485 60.3304110 21.5857725
1.7378279 -0.2238871 1.0834473 -0.041011 -0.063593 -0.004358 -0.1384108 0.1129576 -0.4038160 38.8948289 -15.8083831 64.8728598 22.5854276
1.6699276 -0.1740139 1.1140488 -0.025901 -0.051340 -0.004698 -0.2874875 0.1713347 -1.1212107 32.4153913 -9.3779525 67.7516487 23.4628117
1.5954650 -0.1274548 1.1347253 -0.012040 -0.038484 -0.005540 -0.3374949 0.0908784 -1.8361595 26.1047996 -3.6724949 69.2428903 24.6245305
1.5160765 -0.0850011 1.1467758 -0.000082 -0.026003 -0.006745 -0.2697650 -0.0818519 -2.2157564 20.3673051 1.3334272 69.7964229 25.5312512
1.4328446 -0.0470210 1.1515895 0.010294 -0.014228 -0.008199 -0.1701538 -0.2760922 -2.4967018 15.1224286 5.5678621 69.6935760 26.6684260
1.3461833 -0.0136093 1.1504790 0.018522 -0.003714 -0.009644 -0.0535407 -0.4323299 -2.4862318 10.5929053 9.2171858 69.2116080 27.4326130
1.2555150 0.0151916 1.1445777 0.025129 0.005660 -0.010959 0.0484245 -0.5733496 -2.5148645 6.5097151 12.2277856 68.5216367 28.4584917
1.9676633 -0.4395843 0.7042867 -0.109564 -0.103411 -0.001841 1.9816182 -2.5208113 0.5726631 67.7366981 -47.2157820 12.8442045 19.1863728
1.9764164 -0.4020214 0.7876666 -0.097091 -0.107898 -0.002857 3.6508394 -3.9920562 2.0622557 69.6456525 -41.9633025 25.8070359 18.6885087
1.9657516 -0.3572824 0.8670946 -0.082206 -0.108222 -0.003433 4.2956759 -4.0381806 3.6527325 68.3268763 -35.3262485 37.9964602 18.5642593
1.9369159 -0.3073099 0.9388190 -0.065783 -0.104037 -0.003245 3.7619444 -2.9929116 4.3928702 64.1179853 -27.9705717 48.3332112 18.9696084
1.8920683 -0.2546387 1.0001117 -0.048818 -0.095936 -0.002880 2.5148753 -1.6240863 3.8830816 57.7937839 -20.2827828 56.4601343 19.7283323
1.8340105 -0.2017975 1.0495955 -0.032050 -0.084460 -0.002709 1.2181789 -0.5779429 2.4577549 50.2088515 -12.9324212 62.2252454 20.8051559
1.7656667 -0.1508814 1.0871771 -0.016352 -0.070935 -0.003013 0.2709413 -0.0700145 0.7179770 42.2614445 -6.1492858 65.8969560 21.9989963
1.6896329 -0.1033750 1.1137035 -0.002132 -0.056358 -0.003936 -0.2263528 -0.0093555 -0.8044137 34.5155552 -0.2080698 67.8632018 23.2908100
1.6079096 -0.0601718 1.1305412 0.010256 -0.041911 -0.005383 -0.3820056 -0.1924705 -1.8973862 27.3611735 4.9316694 68.6353974 24.5416390
1.5217840 -0.0216993 1.1392308 0.020678 -0.028171 -0.007185 -0.3324712 -0.4418856 -2.4948110 20.9795970 9.2404876 68.6077475 25.7303766
1.4317562 0.0119089 1.1412483 0.029108 -0.015702 -0.009077 -0.2091476 -0.6778172 -2.8050828 15.3345036 12.8796002 68.0865735 26.8464356
1.3374097 0.0406028 1.1378911 0.035501 -0.004435 -0.010892 -0.0675023 -0.8563285 -2.8893608 10.4054465 15.8125759 67.3232266 27.8623830
2.0358044 -0.3740927 0.7084336 -0.087446 -0.123809 -0.001288 9.6090411 -8.2288350 2.4891491 80.3551096 -38.6741870 13.9499211 16.9058568
2.0369193 -0.3300807 0.7945813 -0.072191 -0.126752 -0.001861 11.3717607 -8.0069038 5.8172394 80.8752945 -32.1237185 27.7058704 16.4595661
2.0167120 -0.2804432 0.8748295 -0.055232 -0.124250 -0.001593 10.4479774 -5.8739103 8.1201480 77.4890466 -24.6991914 40.0148006 16.8623226
1.9773505 -0.2277118 0.9453309 -0.037725 -0.116888 -0.001067 7.6898452 -3.2023865 8.2777253 70.9556591 -16.8391945 50.1090363 17.5708416
1.9220291 -0.1745609 1.0037724 -0.020574 -0.105094 -0.000647 4.4200263 -1.1139730 6.3421911 62.3752844 -9.2854458 57.5236311 18.8989620
1.8542889 -0.1232631 1.0494596 -0.004703 -0.090586 -0.000783 1.8800939 -0.0937565 3.5525132 52.9989516 -2.2912526 62.4094575 20.2301810
1.7773631 -0.0754373 1.0829698 0.009662 -0.074420 -0.001754 0.3255011 0.0713537 0.8142131 43.6763421 3.7608221 65.2196935 21.8715926
1.6937841 -0.0320595 1.1056500 0.021917 -0.058166 -0.003360 -0.3368943 -0.2045583 -1.1401768 35.0605101 8.9533055 66.4697110 23.2317402
1.6052294 0.0063943 1.1191569 0.032289 -0.042512 -0.005519 -0.5066694 -0.6200906 -2.4248076 27.3029323 13.2250182 66.6992405 24.7805002
1.5125028 0.0397649 1.1251495 0.040408 -0.028123 -0.007862 -0.4032221 -0.9520544 -2.9731250 20.5719424 16.7562168 66.3179290 25.9397699
1.4155501 0.0680162 1.1251101 0.046550 -0.015158 -0.010177 -0.2372526 -1.2260724 -3.2730308 14.6811961 19.5780440 65.5852908 27.2517198
2.0890850 -0.2955009 0.7112206 -0.059043 -0.141648 -0.000579 20.3798041 -10.6990406 4.8593566 90.9651389 -27.3810682 14.6961518 14.8668330
2.0801706 -0.2467630 0.7983599 -0.041672 -0.141716 -0.000250 20.1823191 -7.7989270 9.6038559 89.3198493 -20.0446046 28.6810418 14.9271566
2.0489499 -0.1946918 0.8775959 -0.023704 -0.135655 0.000553 15.9308151 -3.9185573 11.6301491 83.4129639 -12.2861727 40.7951941 15.6892735
1.9986495 -0.1420222 0.9453816 -0.006446 -0.124335 0.001391 10.0688712 -0.9055181 10.2763147 74.5125754 -4.7028086 50.2181994 17.0483649
1.9333019 -0.0911390 1.0000643 0.009490 -0.109319 0.001486 4.9372931 0.4845872 6.7794231 63.9860538 2.3184026 56.8308060 18.6810507
1.8568250 -0.0437509 1.0416632 0.023469 -0.092016 0.000701 1.5984067 0.5459234 2.9184727 53.2251528 8.3544014 60.8615730 20.4502619
1.7724106 -0.0008811 1.0713099 0.035450 -0.074239 -0.000997 -0.0633203 -0.0429404 -0.1547565 43.0595391 13.4700480 62.9777819 22.1839673
1.6822827 0.0369732 1.0906811 0.045233 -0.056849 -0.003383 -0.6333846 -0.7468734 -2.1242641 33.9615071 17.5885580 63.7428125 23.8242705
1.5876913 0.0696453 1.1015743 0.052943 -0.040823 -0.006090 -0.6535753 -1.3097352 -3.1652855 25.9984317 20.9526700 63.6768893 25.2989537
1.4890111 0.0971239 1.1056604 0.058521 -0.026290 -0.008865 -0.4587349 -1.6562454 -3.5539597 19.1613845 23.5954309 63.1698212 26.6506756
2.1227215 -0.2065432 0.7122456 -0.025328 -0.154221 0.000399 30.0054842 -7.2587498 6.7513362 97.6161015 -14.1816244 14.9184826 13.4653195
2.1023305 -0.1558472 0.7984248 -0.007083 -0.150332 0.001519 25.7455805 -2.7519891 11.6836730 93.4255595 -6.7046513 28.6865348 13.9881167
2.0598507 -0.1044736 0.8749493 0.010273 -0.140305 0.002756 17.5535404 0.7222724 12.3448953 85.1104641 0.7124551 40.1816506 15.4003748
1.9994062 -0.0548371 0.9389105 0.025874 -0.125519 0.003357 9.4942983 2.0584668 9.4284790 74.2628898 7.5509963 48.8001765 17.0536379
1.9254411 -0.0086771 0.9894001 0.039248 -0.107813 0.002946 3.6758147 1.6159734 4.9627964 62.4749217 13.4360703 54.5077015 19.1231932
1.8418273 0.0329779 1.0270370 0.050387 -0.088979 0.001393 0.5630633 0.4162826 1.0227994 51.0375830 18.3112807 57.8480568 20.9510332
1.7514334 0.0696391 1.0533153 0.059355 -0.070389 -0.001057 -0.7222317 -0.8430055 -1.7815086 40.6444569 22.1876707 59.4634118 22.8965315
1.6560658 0.1011523 1.0700692 0.066223 -0.052994 -0.004015 -0.9353921 -1.7076677 -3.2290546 31.5747682 25.2873372 60.0014125 24.4429179
1.5565843 0.1275279 1.0791115 0.071099 -0.037166 -0.007159 -0.7602740 -2.2504603 -3.9083107 23.7811028 27.6578405 59.9012602 26.0581156
2.1333069 -0.1122638 0.7112611 0.011292 -0.159203 0.001311 32.8582563 0.5913704 7.1426608 99.2442845 -0.3419884 14.6639705 13.1089547
2.1014528 -0.0628916 0.7946287 0.028638 -0.151258 0.003021 24.3963183 3.8686545 10.8094163 92.6446848 6.7467174 27.7756359 14.2556349
2.0488766 -0.0152364 0.8671386 0.043874 -0.137824 0.004245 14.2436906 4.6076093 9.8821728 82.4459814 13.3147007 38.3605317 16.0066679
1.9801288 0.0289967 0.9266615 0.056517 -0.120659 0.004452 6.1725004 3.2696557 6.1123398 70.4623842 18.9399476 45.9754481 18.0456331
1.8995800 0.0688143 0.9729389 0.066789 -0.101716 0.003283 1.3992308 1.1220170 1.9061054 58.2586825 23.5130517 50.9404748 20.1126965
1.8107375 0.1037640 1.0069883 0.074611 -0.082482 0.001067 -0.7171952 -0.8461810 -1.3329270 46.9303074 27.0545803 53.7753725 22.1114660
1.7160303 0.1337169 1.0304830 0.080507 -0.064221 -0.001931 -1.2636434 -2.1943582 -3.2471261 36.8720360 29.8035471 55.1919277 23.9109435
1.6168709 0.1587037 1.0452798 0.084394 -0.047488 -0.005227 -1.1098409 -2.9156271 -4.0960725 28.2640462 31.8804873 55.7158548 25.5256215
2.1201395 -0.0189663 0.7083368 0.047254 -0.155878 0.002016 27.0543400 7.4308172 5.8104444 95.8052737 13.0498555 13.9725657 13.8607466
2.0783032 0.0261880 0.7874293 0.062158 -0.144690 0.003849 17.1813759 7.3865073 7.6008932 87.3145838 19.2383476 26.0894406 15.2955956
2.0177946 0.0679988 0.8551254 0.074191 -0.129156 0.004772 8.0770960 5.0266505 5.6556045 76.1466265 24.5103548 35.5701534 17.3329484
1.9430613 0.1055447 0.9100061 0.083390 -0.110998 0.004324 2.1641653 1.8896882 2.1880512 64.0483086 28.6945793 42.2896337 19.3274371
1.8580615 0.1384279 0.9522648 0.090162 -0.092128 0.002633 -0.7698627 -0.9355277 -1.0850954 52.2811818 31.8799143 46.5833200 21.4826606
1.7658283 0.1665549 0.9831345 0.094877 -0.073662 -0.000122 -1.6213902 -2.7636667 -3.1697514 41.6648293 34.2550935 49.1486319 23.2530293
1.6683791 0.1899696 1.0043365 0.097814 -0.056564 -0.003367 -1.5419147 -3.7781411 -4.2623321 32.4043076 35.9976457 50.5106979 25.0831641
2.0854887 0.0675822 0.7038626 0.079306 -0.145649 0.002228 16.3793907 8.9417737 3.5510146 88.0682908 25.0429360 12.9342648 15.4700865
2.0360103 0.1067215 0.7777433 0.090875 -0.132607 0.003901 8.2681078 6.0031715 3.7316221 78.6883058 29.9043696 23.8122153 17.1917420
1.9699877 0.1417901 0.8402579 0.099486 -0.116495 0.004297 2.2294887 2.1390619 1.6105987 67.5033031 33.7309880 32.1643141 19.1447505
1.8914238 0.1724627 0.8905033 0.105329 -0.098769 0.003343 -0.9953318 -1.2683474 -1.0513975 56.0985842 36.5413518 38.0467343 21.1379140
1.8037805 0.1986815 0.9289437 0.109156 -0.080957 0.001116 -2.0599559 -3.5359824 -3.0798564 45.3866811 38.5817695 41.9603142 23.0382452
1.7096741 0.2204949 0.9569140 0.111078 -0.063997 -0.001827 -1.9865902 -4.7069407 -4.2019974 35.8913194 40.0179310 44.3814215 24.7776267
2.0336060 0.1435655 0.6983967 0.105415 -0.130957 0.002080 6.3473804 5.3936571 1.4181348 77.6541321 34.7761677 11.6432072 17.5865032
1.9788783 0.1761300 0.7666150 0.113596 -0.117462 0.003202 1.4593441 1.5578215 0.6860903 68.3478906 38.2125264 21.2883549 19.1435984
1.9093617 0.2046156 0.8238337 0.119001 -0.101897 0.003122 -1.5079932 -2.0513922 -1.1482907 58.0348148 40.7160784 28.6208038 21.0821434
1.8285642 0.2290121 0.8694652 0.122046 -0.085429 0.001653 -2.5296571 -4.4725014 -2.8560323 47.8907593 42.4743545 33.8713500 22.7841421
1.7395767 0.2493546 0.9041525 0.123398 -0.069374 -0.000745 -2.4621202 -5.8060684 -4.0043109 38.4758142 43.6666895 37.4022806 24.5976764
1.9692852 0.2074405 0.6924788 0.125124 -0.114438 0.001618 -0.1252606 -0.1511028 -0.0294208 66.3382563 41.9984746 10.2901883 19.8279783
1.9111712 0.2338079 0.7549077 0.130410 -0.101608 0.002250 -2.2725116 -3.3611467 -1.1354757 57.8081047 44.2871186 18.7123655 21.3939658
1.8394504 0.2565319 0.8067593 0.133418 -0.087305 0.001538 -3.0555190 -5.6809450 -2.5039746 48.7085269 45.8750984 25.1792117 23.0159699
1.7573707 0.2756385 0.8476541 0.134312 -0.072546 -0.000212 -2.8874334 -6.9453249 -3.5631955 39.9315965 46.8845870 29.8405867 24.6362853
1.8968162 0.2594091 0.6865024 0.139067 -0.098101 0.000958 -3.0328407 -4.9750838 -0.7631441 55.5311105 47.0606721 9.0389415 21.9456519
1.8363628 0.2805037 0.7431044 0.142021 -0.086325 0.000918 -3.4661631 -6.9142993 -1.8756579 48.0992386 48.5238024 16.4292550 23.2184081
1.7629474 0.2985815 0.7893195 0.143122 -0.073551 -0.000079 -3.2140346 -8.0592322 -2.8895255 40.2616478 49.5051259 22.0267895 24.7933992
1.8195377 0.3006798 0.6806532 0.148371 -0.083094 0.000389 -3.7315663 -8.1586381 -1.0219063 45.8866048 50.5924728 7.8640592 23.9079185
1.7568144 0.3176850 0.7310948 0.149658 -0.072611 -0.000195 -3.4082252 -9.0909887 -2.0270777 39.3785669 51.3931389 14.1881409 25.1494550
1.7397250 0.3328623 0.6747246 0.153797 -0.069649 -0.000403 -3.1949067 -9.2559907 -0.9604561 37.6971537 52.9911406 6.9198743 25.5653134
1.7108502 0.3449307 0.6212299 0.155710 -0.065187 0.000000 -3.6327652 -11.8109567 -0.0000000 34.6455850 52.9849312 -0.0000309 26.2131258
1.7884324 0.3175578 0.6212299 0.151842 -0.077599 -0.000000 -3.4748470 -8.5495173 -0.0000000 42.4895976 51.9474833 0.0000085 24.4738418
1.8664117 0.2814533 0.6212299 0.144797 -0.091755 0.000000 -3.5770901 -6.6668562 -0.0000000 51.5006180 49.1142782 -0.0000119 22.8308697
1.9416293 0.2351740 0.6212299 0.133528 -0.107718 -0.000000 -1.7562989 -2.4406860 -0.0000000 61.9241419 44.9727197 -0.0000055 20.6387587
2.0108687 0.1773327 0.6212299 0.116839 -0.124543 -0.000000 3.1150074 3.1290653 0.0000000 73.3386819 38.8553878 0.0000034 18.5055085
2.0700864 0.1071495 0.6212299 0.093897 -0.140684 -0.000000 12.1385514 8.2744892 0.0000000 84.6439435 30.3077506 -0.0000031 16.1570897
2.1145013 0.0251946 0.6212299 0.064555 -0.153819 -0.000000 23.8497771 9.5410487 0.0000001 94.1795331 19.2972791 -0.0000032 14.3010248
2.1392783 -0.0658520 0.6212299 0.029919 -0.161022 -0.000000 33.5394914 4.7427143 0.0000001 100.0791848 6.3675985 0.0000043 12.9263920
2.1408650 -0.1610017 0.6212299 -0.007195 -0.160285 -0.000000 35.2435849 -3.9292124 0.0000001 101.0817285 -7.4773848 -0.0000021 12.8342023
2.1183983 -0.2538654 0.6212299 -0.043131 -0.151262 -0.000000 27.9558618 -10.5319892 0.0000001 96.8638073 -21.2390297 -0.0000019 13.6590341
2.0741392 -0.3384539 0.6212299 -0.074674 -0.135522 -0.000000 16.1622686 -10.9205767 0.0000000 87.8943587 -33.7400295 0.0000051 15.5650271
2.0125666 -0.4107589 0.6212299 -0.100065 -0.115807 -0.000000 5.9667782 -6.1852876 0.0000000 75.7806830 -43.7934417 -0.0000008 17.7397599
1.9388691 -0.4691860 0.6212299 -0.119420 -0.095052 -0.000000 -0.1061793 0.1594410 -0.0000000 62.6867253 -50.8259068 -0.0000029 20.1726263
1.8578664 -0.5140206 0.6212299 -0.133101 -0.074896 -0.000000 -2.3496150 5.0258250 -0.0000000 50.2673431 -55.3276917 0.0000143 22.1976379
1.7742739 -0.5464539 0.6212299 -0.142977 -0.056709 -0.000000 -3.0888980 9.5814601 -0.0000000 39.3475340 -57.9649428 -0.0000012 24.2882118
1.7150184 -0.5596124 0.5588892 -0.145685 -0.045978 0.001523 -3.1397131 12.3903209 1.3981852 32.5134711 -57.2237153 -7.8079909 25.3307624
1.7307053 -0.5430500 0.4916126 -0.140543 -0.049629 0.002853 -2.3991402 8.4722125 2.1934153 34.9692857 -56.6677960 -17.5850121 24.7602417
1.7364838 -0.5179444 0.4225890 -0.132647 -0.052021 0.004213 -2.1752439 7.0010361 2.9764172 35.8541067 -53.6897145 -27.2447415 24.5307159
1.7305784 -0.4848840 0.3552518 -0.122876 -0.052752 0.005122 -1.8434017 5.5039891 3.4193958 35.7942400 -49.4962875 -36.6410177 24.1660225
1.7123112 -0.4450083 0.2924287 -0.110647 -0.051294 0.005647 -1.4782833 4.1692506 3.5814152 34.3640382 -44.2735917 -45.2408969 24.2207945
1.6818923 -0.4000046 0.2364787 -0.097093 -0.047592 0.005715 -1.0969499 2.9778016 3.4459437 31.8952452 -38.3596823 -52.6460364 24.2220648
1.6402442 -0.3518573 0.1890441 -0.082457 -0.041678 0.005587 -0.7897223 2.1067999 3.2601557 28.4769839 -32.0929701 -58.6191370 24.6316472
1.5887633 -0.3025702 0.1509550 -0.067753 -0.034004 0.005446 -0.5333947 1.4348173 2.9945084 24.5676639 -25.7974383 -63.1670113 24.9704003
1.5290607 -0.2539212 0.1222804 -0.053232 -0.025045 0.005491 -0.3495057 0.9847665 2.8474985 20.3040318 -19.7814754 -66.3291945 25.6752715
1.4627465 -0.2073134 0.1024912 -0.039760 -0.015583 0.005812 -0.1952340 0.6207323 2.6278895 16.1465261 -14.1885829 -68.4230652 26.1859812
1.3912906 -0.1637275 0.0906768 -0.027349 -0.006181 0.006400 -0.0814175 0.3692442 2.5645344 12.1045374 -9.1090453 -69.5739718 27.0095500
1.3159723 -0.1237588 0.0857330 -0.016505 0.002677 0.007139 0.0134354 0.1588475 2.4416581 8.4351251 -4.5898784 -70.0923620 27.5650568
1.2379314 -0.0877078 0.0865055 -0.007126 0.010566 0.007942 0.0945765 -0.0083316 2.5027527 5.1149189 -0.5910470 -70.0688809 28.3628150
1.1582916 -0.0556818 0.0918466 0.000577 0.017334 0.008760 0.1322942 -0.1273038 2.0248825 2.2729136 2.9161891 -70.1798492 28.8232049
1.0789107 -0.0278593 0.1005650 0.006881 0.022962 0.009002 0.5074231 -0.6646985 5.7120776 -0.2124866 5.8098623 -68.5306733 29.5667916
1.7397250 0.3328623 0.5677351 0.153798 -0.069649 0.000403 -3.1949142 -9.2560124 0.9604583 37.6971281 52.9911194 -6.9198699 25.5653054
1.7568144 0.3176850 0.5113649 0.149658 -0.072611 0.000195 -3.4082205 -9.0909763 2.0270749 39.3785883 51.3931472 -14.1881355 25.1494531
1.7629474 0.2985815 0.4531403 0.143122 -0.073551 0.000079 -3.2140422 -8.0592510 2.8895322 40.2616312 49.5050992 -22.0267954 24.7933883
1.7573707 0.2756385 0.3948056 0.134312 -0.072546 0.000212 -2.8874295 -6.9453154 3.5631906 39.9315921 46.8845953 -29.8405970 24.6362953
1.7395767 0.2493546 0.3383072 0.123398 -0.069374 0.000745 -2.4621255 -5.8060810 4.0043195 38.4758322 43.6666651 -37.4022644 24.5976472
1.7096741 0.2204949 0.2855457 0.111079 -0.063997 0.001827 -1.9865880 -4.7069355 4.2019928 35.8913047 40.0179374 -44.3814302 24.7776375
1.6683791 0.1899696 0.2381233 0.097814 -0.056564 0.003367 -1.5419164 -3.7781455 4.2623369 32.4043034 35.9976310 -50.5106951 25.0831565
1.6168709 0.1587037 0.1971800 0.084394 -0.047488 0.005227 -1.1098403 -2.9156256 4.0960703 28.2640575 31.8804892 -55.7158512 25.5256010
1.5565843 0.1275279 0.1633482 0.071099 -0.037166 0.007159 -0.7602739 -2.2504602 3.9083104 23.7810978 27.6578383 -59.9012590 26.0581145
1.4890111 0.0971239 0.1367993 0.058521 -0.026290 0.008865 -0.4587344 -1.6562435 3.5539555 19.1613549 23.5954401 -63.1698222 26.6506811
1.4155501 0.0680162 0.1173496 0.046550 -0.015158 0.010177 -0.2372523 -1.2260707 3.2730263 14.6812323 19.5780521 -65.5852873 27.2516804
1.3374097 0.0406028 0.1045686 0.035501 -0.004435 0.010892 -0.0675023 -0.8563283 2.8893600 10.4054054 15.8125831 -67.3232251 27.8623871
1.2555150 0.0151916 0.0978821 0.025130 0.005659 0.010959 0.0484238 -0.5733409 2.5148261 6.5097055 12.2278623 -68.5216565 28.4585010
1.1701821 -0.0078716 0.0966693 0.015659 0.014733 0.010232 0.1239786 -0.3692261 2.2059995 2.9711441 8.8821367 -69.0480938 28.9909552
1.8195377 0.3006798 0.5618065 0.148371 -0.083094 -0.000389 -3.7315588 -8.1586217 1.0219042 45.8866189 50.5924918 -7.8640569 23.9079271
1.8363628 0.2805037 0.4993554 0.142021 -0.086325 -0.000918 -3.4661663 -6.9143055 1.8756596 48.0992250 48.5237974 -16.4292695 23.2184108
1.8394504 0.2565319 0.4357004 0.133418 -0.087305 -0.001539 -3.0555134 -5.6809345 2.5039699 48.7085477 45.8751190 -25.1791869 23.0159726
1.8285642 0.2290121 0.3729945 0.122046 -0.085429 -0.001653 -2.5296609 -4.4725080 2.8560365 47.8907461 42.4743447 -33.8713636 22.7841468
1.8037805 0.1986815 0.3135161 0.109156 -0.080957 -0.001116 -2.0599509 -3.5359739 3.0798490 45.3866797 38.5817934 -41.9603135 23.0382617
1.7658283 0.1665549 0.2593252 0.094877 -0.073662 0.000122 -1.6213922 -2.7636700 3.1697552 41.6648460 34.2550830 -49.1486294 23.2530174
1.7160303 0.1337169 0.2119768 0.080507 -0.064221 0.001931 -1.2636413 -2.1943545 3.2471206 36.8720278 29.8035659 -55.1919307 23.9109634
1.6560658 0.1011523 0.1723905 0.066223 -0.052994 0.004015 -0.9353943 -1.7076718 3.2290624 31.5747650 25.2873240 -60.0014121 24.4429301
1.5876913 0.0696453 0.1408855 0.052943 -0.040824 0.006090 -0.6535739 -1.3097323 3.1652785 25.9984527 20.9526778 -63.6768930 25.2989449
1.5125028 0.0397649 0.1173103 0.040408 -0.028123 0.007862 -0.4032243 -0.9520595 2.9731409 20.5719427 16.7561945 -66.3179204 25.9397903
1.4317562 0.0119089 0.1012115 0.029108 -0.015702 0.009077 -0.2091470 -0.6778154 2.8050754 15.3344890 12.8796026 -68.0865838 26.8464609
1.3461833 -0.0136093 0.0919807 0.018522 -0.003714 0.009644 -0.0535412 -0.4323339 2.4862544 10.5929574 9.2171349 -69.2115923 27.4325943
1.2556473 -0.0364063 0.0890045 0.009158 0.007298 0.009461 0.0575816 -0.2661069 2.3242897 6.1704242 5.9006741 -69.8073523 28.3125315
1.8968162 0.2594091 0.5559573 0.139067 -0.098101 -0.000958 -3.0328473 -4.9750947 0.7631458 55.5311036 47.0606590 -9.0389179 21.9456414
1.9111712 0.2338079 0.4875520 0.130410 -0.101608 -0.002250 -2.2725089 -3.3611427 1.1354743 57.8081063 44.2871184 -18.7123812 21.3939687
1.9093617 0.2046156 0.4186261 0.119001 -0.101897 -0.003122 -1.5079984 -2.0513992 1.1482946 58.0348032 40.7160663 -28.6208044 21.0821356
1.8914238 0.1724627 0.3519564 0.105329 -0.098769 -0.003343 -0.9953289 -1.2683438 1.0513944 56.0985979 36.5413540 -38.0467269 21.1379074
1.8580615 0.1384279 0.2901949 0.090162 -0.092128 -0.002633 -0.7698668 -0.9355328 1.0851013 52.2811693 31.8799003 -46.5833209 21.4826532
1.8107375 0.1037640 0.2354714 0.074611 -0.082482 -0.001067 -0.7171922 -0.8461775 1.3329214 46.9303011 27.0545879 -53.7753781 22.1114720
1.7514334 0.0696391 0.1891445 0.059355 -0.070389 0.001057 -0.7222338 -0.8430080 1.7815139 40.6444670 22.1876593 -59.4634010 22.8965035
1.6822827 0.0369732 0.1517787 0.045234 -0.056849 0.003383 -0.6333816 -0.7468699 2.1242542 33.9614947 17.5885709 -63.7428222 23.8242767
1.6052294 0.0063943 0.1233029 0.032289 -0.042512 0.005519 -0.5066706 -0.6200921 2.4248133 27.3029181 13.2250211 -66.6992325 24.7804948
1.5217840 -0.0216993 0.1032290 0.020678 -0.028171 0.007185 -0.3324691 -0.4418828 2.4947953 20.9796104 9.2405028 -68.6077584 25.7303461
1.4328446 -0.0470210 0.0908702 0.010294 -0.014228 0.008199 -0.1701543 -0.2760931 2.4967092 15.1224090 5.5678838 -69.6935656 26.6684246
1.3385177 -0.0692306 0.0855035 0.001018 -0.001282 0.008456 -0.0278124 -0.1275464 2.4034912 9.8457900 2.3162767 -70.1457373 27.5372208
1.9692852 0.2074405 0.5499810 0.125124 -0.114438 -0.001618 -0.1252529 -0.1510936 0.0294190 66.3382649 41.9984883 -10.2901901 19.8279863
1.9788783 0.1761300 0.4758448 0.113596 -0.117462 -0.003202 1.4593418 1.5578191 -0.6860893 68.3478917 38.2125259 -21.2883451 19.1435956
1.9699877 0.1417901 0.4022018 0.099486 -0.116495 -0.004297 2.2294938 2.1390668 -1.6106023 67.5033080 33.7309992 -32.1643183 19.1447613
1.9430613 0.1055447 0.3324536 0.083390 -0.110998 -0.004324 2.1641613 1.8896847 -2.1880471 64.0482989 28.6945759 -42.2896370 19.3274418
1.8995800 0.0688143 0.2695209 0.066789 -0.101716 -0.003283 1.3992352 1.1220205 -1.9061114 58.2587025 23.5130637 -50.9404692 20.1126970
1.8418273 0.0329779 0.2154227 0.050387 -0.088979 -0.001393 0.5630590 0.4162794 -1.0227916 51.0375735 18.3112710 -57.8480561 20.9510415
1.7724106 -0.0008811 0.1711498 0.035450 -0.074239 0.000996 -0.0633171 -0.0429382 0.1547488 43.0595422 13.4700589 -62.9777905 22.1839859
1.6937841 -0.0320595 0.1368098 0.021917 -0.058166 0.003360 -0.3368988 -0.2045610 1.1401920 35.0605260 8.9532844 -66.4696937 23.2317288
1.6079096 -0.0601718 0.1119186 0.010256 -0.041911 0.005383 -0.3820037 -0.1924696 1.8973771 27.3611715 4.9316699 -68.6354106 24.5416647
1.5160765 -0.0850011 0.0956840 -0.000082 -0.026003 0.006745 -0.2697675 -0.0818527 2.2157774 20.3673041 1.3334006 -69.7964017 25.5312701
1.4188261 -0.1063266 0.0872323 -0.008877 -0.011049 0.007355 -0.1302424 0.0436190 2.4347073 14.0194348 -1.8161801 -70.1909483 26.7175457
2.0336060 0.1435655 0.5440631 0.105415 -0.130957 -0.002080 6.3473745 5.3936522 -1.4181334 77.6541239 34.7761582 -11.6432091 17.5864969
2.0360103 0.1067215 0.4647165 0.090875 -0.132607 -0.003901 8.2681107 6.0031736 -3.7316233 78.6883063 29.9043697 -23.8122235 17.1917433
2.0177946 0.0679988 0.3873343 0.074191 -0.129156 -0.004772 8.0770918 5.0266479 -5.6556015 76.1466260 24.5103478 -35.5701406 17.3329350
1.9801288 0.0289967 0.3157983 0.056517 -0.120659 -0.004452 6.1725052 3.2696583 -6.1123446 70.4623846 18.9399485 -45.9754572 18.0456357
1.9254411 -0.0086771 0.2530596 0.039248 -0.107813 -0.002946 3.6758103 1.6159715 -4.9627904 62.4749064 13.4360659 -54.5076987 19.1231871
1.8568250 -0.0437509 0.2007966 0.023469 -0.092016 -0.000701 1.5984104 0.5459247 -2.9184795 53.2251665 8.3544057 -60.8615726 20.4502478
1.7773631 -0.0754373 0.1594900 0.009662 -0.074420 0.001754 0.3254992 0.0713533 -0.8142082 43.6763239 3.7608238 -65.2196910 21.8715869