# volRat = 0.650000
# viscRat = 5.000000
# alpha = 0.750000
# shRate = 3.175000
# tnum = 4100
# time = 3.375542
VARIABLES = X, Y, Z, U, V, W, F_B0, F_B1, F_B2, F_0, F_1, F_2, T
ZONE N=2562 E=5120 F=FEPOINT ET=TRIANGLE
1.6488048 0.3534276 0.6212299 0.154675 -0.038332 0.000005 5.5691118 22.9056951 0.0000044 31.8224226 68.6413350 -0.0027876 26.3997345
-1.6625683 0.5732709 0.6212299 0.150051 0.026790 0.000005 -3.8548476 21.3951923 0.0000051 -28.2211624 71.3367106 -0.0027327 25.4276934
1.6625683 -0.5732709 0.6212299 -0.150052 -0.026791 -0.000005 3.8548407 -21.3951549 0.0000048 28.2214420 -71.3364875 0.0026582 25.4271876
-1.6488048 -0.3534277 0.6212299 -0.154675 0.038332 -0.000004 -5.5691021 -22.9056549 0.0000048 -31.8227215 -68.6411139 0.0027176 26.3993055
0.9826365 -0.0286808 1.1275833 0.012324 0.033586 -0.003047 -2.1019086 2.2943108 22.0317645 -2.2954673 6.1669182 76.5271519 29.1597942
0.9826365 -0.0286808 0.1148765 0.012331 0.033617 0.003076 -2.1072897 2.3002353 -22.0882579 -2.3062762 6.1448469 -76.5841538 29.1623286
-0.9826365 0.0286808 1.1275833 -0.012330 -0.033618 -0.003072 2.1068043 -2.2996647 22.0830844 2.3057759 -6.1436933 76.5791990 29.1624399
-0.9826365 0.0286808 0.1148764 -0.012323 -0.033587 0.003041 2.1013615 -2.2937485 -22.0261105 2.2947441 -6.1657720 -76.5217260 29.1596381
-0.0423211 0.3481704 0.8402980 0.090546 -0.005232 0.004320 -7.9353004 -85.6131932 -49.2648132 -2.1261189 -20.3484959 -6.8782563 32.7740673
0.0423212 -0.3481692 0.8402972 -0.090368 0.008031 0.002498 6.9870104 75.3880279 -43.3648047 1.2316187 10.2526847 -0.9433270 32.8359727
-0.0423212 0.3481692 0.4021625 0.090391 -0.007795 -0.002620 -6.9999971 -75.5282634 43.4452122 -1.2447597 -10.3840030 1.0056184 32.8404025
0.0423211 -0.3481703 0.4021618 -0.090519 0.005516 -0.004163 7.9048434 85.2843270 49.0755523 2.0962076 20.0317713 6.7044578 32.7716114
1.6717896 0.3462087 0.6710957 0.154891 -0.041058 -0.000040 -4.2434768 -16.1625574 -1.4264459 29.0810653 48.7254146 5.4541452 26.1908210
1.6886902 0.3338146 0.7256910 0.151487 -0.043402 0.000120 -2.9596763 -10.4323350 -2.1031036 31.6632896 51.2282633 12.9232865 25.6695081
1.6966668 0.3164714 0.7829558 0.145842 -0.044472 0.000296 -2.8494988 -9.4525945 -3.0966984 32.3555626 49.4815346 20.2345388 25.4728610
1.6938630 0.2945307 0.8405131 0.137473 -0.043828 0.000479 -2.5684716 -8.1775418 -3.8435332 32.4274775 47.2689333 27.7098662 25.1199626
1.6793616 0.2685707 0.8962790 0.127409 -0.041443 0.000376 -2.2661772 -7.0849617 -4.4754520 31.3476519 44.2296953 34.8739585 25.1527834
1.6530008 0.2394696 0.9483019 0.115584 -0.037111 -0.000060 -1.8483071 -5.8285558 -4.7584491 29.4626372 40.7414237 41.5655129 25.0781460
1.6152800 0.2083068 0.9949668 0.103043 -0.031114 -0.000807 -1.4210009 -4.6693797 -4.8055660 26.7108989 36.9189592 47.5096809 25.3758817
1.5672119 0.1762221 1.0351349 0.090033 -0.023640 -0.001773 -1.0119032 -3.6135079 -4.6143314 23.4446339 32.8790295 52.5739181 25.5682118
1.5101326 0.1442710 1.0682001 0.077498 -0.015289 -0.002769 -0.6741110 -2.7771876 -4.3601740 19.7407803 28.8090523 56.6591618 26.0941231
1.4455157 0.1133231 1.0940524 0.065453 -0.006408 -0.003663 -0.3973291 -2.0849592 -4.0108155 16.0019325 24.7830907 59.8570544 26.4240700
1.3748318 0.0840133 1.1129733 0.054480 0.002388 -0.004289 -0.1875209 -1.5516923 -3.6660082 12.2705631 20.9664012 62.3113493 27.0690742
1.2994774 0.0567485 1.1255182 0.044326 0.010706 -0.004569 -0.0329818 -1.1347974 -3.3223549 8.8156959 17.3208470 64.0858067 27.4385441
1.2208035 0.0317500 1.1324069 0.035213 0.018220 -0.004455 0.0817323 -0.8774619 -3.2403923 5.6160048 13.8730090 65.2153585 28.0775274
1.1402194 0.0091074 1.1344633 0.026855 0.024659 -0.004022 0.1511461 -0.5746622 -2.7591863 2.8393520 10.7412457 66.4001086 28.4029414
1.0599231 -0.0110510 1.1325874 0.019384 0.029754 -0.003267 0.5004971 -0.9482250 -6.2957609 0.4360775 7.4924972 65.3695062 28.9990387
1.7737893 -0.5436828 0.6877535 -0.141911 -0.044353 -0.001345 -2.7249364 8.7724389 -1.1753775 37.3383402 -55.2316793 9.0726494 23.5213918
1.7906688 -0.5237894 0.7565686 -0.135890 -0.048286 -0.002067 -2.5656789 7.3245859 -2.1230496 39.7207855 -53.6782285 18.6431898 23.0619827
1.7948358 -0.4961912 0.8257625 -0.127541 -0.050570 -0.002767 -2.2673329 5.8797468 -2.7764224 40.6572335 -50.2417436 28.4521479 22.6655188
1.7856846 -0.4613275 0.8926369 -0.116694 -0.050723 -0.003006 -1.8401549 4.4184085 -3.0516350 40.0616822 -45.7004794 37.7523938 22.5239709
1.7630267 -0.4203922 0.9545228 -0.103953 -0.048508 -0.002671 -1.4296598 3.2331177 -3.1049907 38.0595548 -40.1778113 46.0730747 22.5285549
1.7274432 -0.3750774 1.0091740 -0.089544 -0.043737 -0.001921 -1.0619601 2.2981742 -3.0021884 34.8275536 -34.1690441 53.0563739 22.8150813
1.6801685 -0.3272856 1.0550714 -0.074381 -0.036713 -0.000947 -0.7913191 1.6636935 -2.9495359 30.7160668 -27.8958570 58.5170299 23.2620772
1.6228347 -0.2788475 1.0915231 -0.059002 -0.027861 -0.000023 -0.5685837 1.1787426 -2.8838166 26.1273047 -21.8013199 62.4720666 23.8760617
1.5571919 -0.2313193 1.1185764 -0.044064 -0.017972 0.000590 -0.3956096 0.8217978 -2.8935909 21.4347271 -16.0119448 65.1126370 24.5865707
1.4848965 -0.1858956 1.1368331 -0.029898 -0.007707 0.000766 -0.2397695 0.5102384 -2.8247221 16.8789742 -10.7541181 66.6955389 25.3781447
1.4073875 -0.1434108 1.1472355 -0.017032 0.002093 0.000471 -0.1126092 0.2591319 -2.7886246 12.7016200 -5.9694697 67.4925679 26.1492527
1.3258334 -0.1043991 1.1509001 -0.005516 0.011034 -0.000222 -0.0063253 0.0461445 -2.6715714 8.9428991 -1.7755452 67.7271452 26.9273302
1.2410782 -0.0691651 1.1489825 0.004451 0.018644 -0.001191 0.0713423 -0.1162381 -2.3961236 5.6509114 1.9448077 67.8041704 27.6767660
1.1533357 -0.0379287 1.1426000 0.012841 0.024900 -0.002276 0.1425372 -0.2656505 -2.5156696 2.8532327 5.0871599 67.1977072 28.3367314
1.8589805 -0.5109622 0.6940183 -0.133514 -0.060943 -0.001228 -2.5053464 5.5258176 -0.8961954 48.1636582 -53.4138350 10.3797220 21.6759530
1.8746837 -0.4844679 0.7686963 -0.125632 -0.065718 -0.002465 -1.8551084 3.6074027 -1.2796526 50.7426050 -50.1870963 21.3992114 20.9497616
1.8744742 -0.4503639 0.8423357 -0.114764 -0.067650 -0.002994 -1.2139506 2.1219875 -1.2473021 51.1480661 -45.6881293 32.1113079 20.7502718
1.8584913 -0.4095266 0.9118471 -0.101854 -0.066854 -0.003011 -0.6937456 1.1039229 -0.9716920 49.5940800 -39.9463272 42.0042256 20.6014990
1.8273934 -0.3636352 0.9744016 -0.086816 -0.062726 -0.002472 -0.4568380 0.6665252 -0.8426983 46.0741432 -33.5467698 50.4166072 20.9955895
1.7825994 -0.3147668 1.0278975 -0.071077 -0.055706 -0.001483 -0.4017575 0.5375853 -0.9682168 41.2691271 -26.7856391 57.0211321 21.4014313
1.7260659 -0.2649922 1.0712091 -0.054879 -0.046077 -0.000477 -0.4558546 0.5531297 -1.4493996 35.5630276 -20.1881188 61.7458392 22.2766645
1.6599269 -0.2160835 1.1041581 -0.039207 -0.034881 0.000256 -0.4347366 0.4617555 -1.8730423 29.6932240 -13.9894081 64.9109349 23.0412516
1.5861735 -0.1693759 1.1272868 -0.024312 -0.022885 0.000507 -0.3828000 0.3216060 -2.3484040 23.9040434 -8.3725989 66.7027049 24.1177888
1.5064526 -0.1257709 1.1415895 -0.010899 -0.011124 0.000254 -0.2663858 0.1154815 -2.5511806 18.6121711 -3.3487046 67.5444294 24.9508826
1.4219485 -0.0858154 1.1482653 0.001228 -0.000058 -0.000486 -0.1481683 -0.0900728 -2.7177877 13.7812534 0.9921454 67.6910642 26.0530377
1.3332558 -0.0498169 1.1485545 0.011446 0.009619 -0.001546 -0.0313172 -0.2634139 -2.6074598 9.6476913 4.8134714 67.4656013 26.7773328
1.2400565 -0.0180121 1.1436177 0.020200 0.017912 -0.002798 0.0648289 -0.4291957 -2.6879504 5.9711764 8.0255073 66.9063944 27.7924510
1.9397118 -0.4664394 0.6995579 -0.121288 -0.079683 -0.001402 -0.1719725 0.2639898 -0.0527684 60.4195197 -49.0914236 11.7812131 19.4966858
1.9515713 -0.4330219 0.7792383 -0.110694 -0.084370 -0.002256 1.2053948 -1.6091313 0.7205091 62.7303733 -44.6816799 23.9223473 18.9484066
1.9448279 -0.3924227 0.8564223 -0.097375 -0.085496 -0.002676 2.0286003 -2.3800680 1.8234263 62.1510211 -38.8318201 35.5777155 18.7280277
1.9201857 -0.3461905 0.9274930 -0.082004 -0.082563 -0.002234 2.0419372 -2.1067056 2.5235610 58.8582449 -32.1444420 45.7226803 18.9752851
1.8792317 -0.2965094 0.9895516 -0.065564 -0.075888 -0.001317 1.3932625 -1.2479372 2.2851632 53.3995213 -24.9425466 53.8662462 19.5706376
1.8243024 -0.2456830 1.0408342 -0.048704 -0.065787 -0.000281 0.5994722 -0.4493052 1.2930505 46.5968484 -17.9156191 59.8151437 20.4933242
1.7580304 -0.1957115 1.0807765 -0.032325 -0.053381 0.000505 -0.0143001 0.0081724 -0.0409101 39.2918736 -11.3101069 63.7642240 21.5584957
1.6828915 -0.1480849 1.1097838 -0.016946 -0.039652 0.000804 -0.3261768 0.1060098 -1.2690495 32.0591617 -5.4059390 65.9966897 22.7469636
1.6008986 -0.1037746 1.1288723 -0.002999 -0.025809 0.000518 -0.3929336 -0.0257321 -2.1800985 25.3291805 -0.2059895 67.0029751 23.9345545
1.5134483 -0.0633422 1.1393510 0.009297 -0.012604 -0.000305 -0.3082015 -0.2460787 -2.6651161 19.3282909 4.2454689 67.1612583 25.0742583
1.4212274 -0.0270943 1.1425861 0.019866 -0.000749 -0.001523 -0.1775627 -0.4710692 -2.9163171 14.0510139 8.0827851 66.7931313 26.1632322
1.3240770 0.0047376 1.1398783 0.028548 0.009612 -0.002980 -0.0431027 -0.6662761 -3.0140645 9.5178273 11.2638294 66.1055171 27.1695006
2.0127429 -0.4085532 0.7045131 -0.103656 -0.099391 -0.001161 5.7607654 -6.0654082 1.5662070 73.2799660 -42.2474604 13.0648350 17.2238985
2.0180104 -0.3683485 0.7881270 -0.090145 -0.103202 -0.001779 7.7708831 -6.9083235 4.1638879 74.6505593 -36.4627118 26.2672274 16.6507197
2.0023782 -0.3220791 0.8674876 -0.074331 -0.102103 -0.001457 7.6907103 -5.7317816 6.2619599 72.2027833 -29.5921933 38.3172693 16.8725394
1.9673304 -0.2719663 0.9386349 -0.057276 -0.096330 -0.000607 5.9791218 -3.6261952 6.7588983 66.6429862 -22.1438167 48.4213349 17.3891500
1.9154899 -0.2205094 0.9988570 -0.039845 -0.086056 0.000492 3.5430566 -1.6212589 5.3643959 58.8705887 -14.8054209 56.0197942 18.5376356
1.8500499 -0.1699346 1.0469427 -0.023093 -0.072693 0.001379 1.5210050 -0.4255162 3.0556220 50.1389698 -7.9143022 61.1771353 19.7240710
1.7741141 -0.1218890 1.0829778 -0.007400 -0.057292 0.001673 0.2063507 -0.0091093 0.5547583 41.2369687 -1.8274490 64.1838072 21.2715734
1.6902436 -0.0774102 1.1079207 0.006568 -0.041473 0.001348 -0.3418822 -0.1030215 -1.2622082 32.9694817 3.4760535 65.6175456 22.5621935
1.6002419 -0.0370608 1.1231617 0.018946 -0.026096 0.000347 -0.4688428 -0.4074337 -2.4987283 25.5067626 7.9228746 65.9529645 24.0744630
1.5051068 -0.0011178 1.1302191 0.029312 -0.012038 -0.001085 -0.3570114 -0.7025656 -3.0236597 19.0720112 11.6770725 65.6312054 25.2177071
1.4050349 0.0302384 1.1305548 0.037853 0.000316 -0.002803 -0.1982923 -0.9733353 -3.3366805 13.5168711 14.7665402 64.9020815 26.5242013
2.0736092 -0.3367827 0.7085582 -0.079602 -0.118242 -0.000701 15.8645364 -10.7994456 3.9384092 85.2155636 -32.4585667 14.1244345 15.0006737
2.0696116 -0.2908358 0.7946851 -0.063431 -0.119833 -0.000508 16.8416549 -9.0447846 8.3380276 84.5999052 -25.5717941 27.8565800 14.8600403
2.0430675 -0.2407765 0.8745321 -0.045789 -0.115513 0.000351 14.1034884 -5.6302066 10.7267674 79.7389119 -18.1088617 40.0121266 15.3982434
1.9965193 -0.1892393 0.9441586 -0.028033 -0.105776 0.001629 9.3382910 -2.3618589 9.9649095 71.6193897 -10.6380260 49.6432141 16.5569693
1.9335921 -0.1386442 1.0013484 -0.010994 -0.091905 0.002604 4.7597921 -0.3880952 6.8747950 61.6264198 -3.6095317 56.4988125 18.0532371
1.8580776 -0.0907821 1.0455784 0.004595 -0.075231 0.002991 1.6372643 0.2267409 3.1723666 51.2001488 2.5370494 60.7673276 19.7308861
1.7732277 -0.0467433 1.0775531 0.018458 -0.057633 0.002587 0.0114119 0.0050887 0.0299560 41.1941404 7.8113441 62.9927070 21.4162751
1.6814246 -0.0070714 1.0986588 0.030364 -0.040183 0.001448 -0.5534320 -0.5062164 -2.0256103 32.2427321 12.1268956 63.7897948 23.0397149
1.5841249 0.0280136 1.1105297 0.040388 -0.024124 -0.000220 -0.5808582 -0.9952243 -3.1366693 24.4481758 15.7235466 63.6936651 24.5128124
1.4819478 0.0584154 1.1147972 0.048400 -0.009811 -0.002213 -0.3995110 -1.3351229 -3.5624595 17.8482500 18.6275986 63.1063371 25.8709595
2.1171627 -0.2525402 0.7112128 -0.049147 -0.133565 0.000122 27.3654129 -10.2102429 6.3780037 94.0255691 -20.1472569 14.7105418 13.2219003
2.1017879 -0.2030625 0.7980643 -0.031099 -0.131580 0.001083 24.9310835 -5.9210791 11.7253483 90.8771176 -12.8204728 28.5685207 13.4910426
2.0632817 -0.1520690 0.8765989 -0.013019 -0.123148 0.002538 17.8940232 -1.7040878 13.0754690 83.3193565 -5.4272593 40.3304655 14.7097978
2.0052947 -0.1021087 0.9432990 0.003971 -0.109412 0.003820 10.1534282 0.6979907 10.5273295 72.8823524 1.5117067 49.2862092 16.2349948
1.9321517 -0.0550794 0.9966486 0.019185 -0.092071 0.004414 4.2000888 1.1526120 5.9640564 61.2038036 7.5706697 55.2515847 18.2381983
1.8478359 -0.0121029 1.0367953 0.032363 -0.073110 0.004089 0.8762693 0.4841738 1.6911078 49.7214429 12.6637583 58.7031640 20.0572809
1.7554231 0.0263131 1.0649189 0.043546 -0.054074 0.002850 -0.5445831 -0.5210821 -1.4461972 39.2460342 16.7549313 60.3013408 22.0110239
1.6569523 0.0600235 1.0826776 0.052747 -0.036204 0.000969 -0.8230896 -1.3135424 -3.1115108 30.1540195 20.0711691 60.7307076 23.5818618
1.5535259 0.0890262 1.0918300 0.060041 -0.020166 -0.001305 -0.6800756 -1.8595768 -3.9151260 22.4408521 22.6731736 60.4509699 25.2293865
2.1387783 -0.1597525 0.7120282 -0.013733 -0.142431 0.001045 34.2824670 -3.4152589 7.6995940 98.0297396 -6.5371386 14.7942101 12.3416703
2.1111473 -0.1098984 0.7976538 0.004555 -0.136110 0.002778 26.8922081 1.0292438 12.3317260 92.2167958 0.6144880 28.2744081 13.2864843
2.0610740 -0.0612019 0.8732681 0.021425 -0.123610 0.004445 16.5387256 3.2282313 11.9209636 82.3623531 7.3725110 39.3283980 14.9318574
1.9929813 -0.0156098 0.9360505 0.036080 -0.106576 0.005476 7.6762701 2.9838479 7.9458300 70.3033368 13.2520386 47.3299264 16.9547408
1.9114041 0.0257525 0.9851991 0.048493 -0.087111 0.005363 2.1662666 1.3960288 3.1114704 57.7647624 18.0647903 52.4670471 19.0508226
1.8201247 0.0624256 1.0213801 0.058562 -0.067000 0.004239 -0.3587981 -0.3603618 -0.7111323 46.0960958 21.8293426 55.3148317 21.0970272
1.7218479 0.0943414 1.0460752 0.066731 -0.047809 0.002261 -1.0923726 -1.6889407 -3.0367941 35.7716076 24.7675366 56.5841507 22.9615040
1.6182407 0.1215891 1.0610800 0.072921 -0.030395 -0.000165 -1.0065672 -2.4525596 -4.0918360 27.0566755 27.0341400 56.8778245 24.6289982
2.1359640 -0.0644596 0.7107997 0.023473 -0.142886 0.001920 31.9839756 5.2083792 7.0959044 96.7002987 7.0974492 14.4028870 12.6103982
2.0968124 -0.0175188 0.7934150 0.040192 -0.132544 0.004036 21.4770630 6.7249855 9.8434825 88.5694569 13.5731035 27.1160498 13.9713413
2.0369148 0.0261817 0.8649168 0.054346 -0.116919 0.005590 10.8680593 5.3939309 7.9241113 77.2170454 19.1752873 37.1528734 16.0207534
1.9609040 0.0655450 0.9232329 0.065736 -0.097938 0.006023 3.5968511 2.6424252 3.8149456 64.5806552 23.6554727 44.2195355 18.0916743
1.8730774 0.1001636 0.9681277 0.074657 -0.077776 0.005263 -0.1591358 -0.1691285 -0.2376417 52.1830928 27.0509241 48.6017111 20.3444548
1.7768076 0.1300390 1.0006088 0.081492 -0.057960 0.003431 -1.3790101 -2.1246755 -2.8922842 41.0396149 29.5783576 51.0398574 22.2154648
1.6743985 0.1553320 1.0223250 0.086556 -0.039730 0.000979 -1.4269616 -3.2620391 -4.2973030 31.4419428 31.4366581 52.1562162 24.1226413
2.1093830 0.0267875 0.7076834 0.058711 -0.135161 0.002418 21.9835997 9.5501877 4.9336479 90.4170573 19.7715475 13.6054086 13.9363406
2.0607382 0.0683493 0.7859291 0.072456 -0.121963 0.004595 12.0844758 7.3513151 5.6691535 80.8530682 25.0484517 25.1969668 15.6868707
1.9934321 0.1055459 0.8525757 0.083207 -0.104865 0.005731 4.2416108 3.5312330 3.2052228 69.0166304 29.2100935 34.0785703 17.7531024
1.9118288 0.1380272 0.9061627 0.091066 -0.085598 0.005586 -0.1589017 -0.1806753 -0.1771067 56.7733098 32.2235663 40.2000485 19.8777014
1.8197920 0.1658432 0.9468477 0.096787 -0.066078 0.004135 -1.7810822 -2.7982224 -2.8410064 45.2906996 34.3474708 44.0857413 21.9050474
1.7202821 0.1891963 0.9758615 0.100589 -0.047619 0.001890 -1.8796594 -4.1814007 -4.2995051 35.2718172 35.8543797 46.3377728 23.7609153
2.0624691 0.1088322 0.7031277 0.088951 -0.121245 0.002512 10.3177882 7.5856862 2.3964812 80.5199322 30.4714869 12.4549178 15.9854239
2.0068086 0.1438683 0.7761366 0.099214 -0.106780 0.004317 3.6769454 3.4812115 1.8066099 70.5851644 34.2697201 22.8006968 17.6571650
1.9343556 0.1743157 0.8374955 0.106474 -0.089607 0.004955 -0.5745588 -0.7081397 -0.4606824 59.3677436 36.9678525 30.5782724 19.7321439
1.8490407 0.2002639 0.8861706 0.111216 -0.071298 0.004189 -2.2393962 -3.6617046 -2.6885352 48.3269887 38.7966244 35.9837270 21.5988368
1.7543651 0.2219125 0.9226216 0.114153 -0.053489 0.002389 -2.3962049 -5.3387648 -4.1946436 38.2060902 39.9643524 39.4366855 23.5376719
1.9999798 0.1789142 0.6976784 0.112767 -0.103995 0.002273 1.7592483 1.9137225 0.4322714 68.8798771 38.5829000 11.1010108 18.3016278
1.9394182 0.2074726 0.7649619 0.119806 -0.089718 0.003598 -1.4692254 -1.9929974 -0.7728757 59.5346822 41.0672027 20.1548562 20.0106566
1.8633819 0.2318289 0.8206993 0.124324 -0.073624 0.003555 -2.8488005 -4.9422212 -2.4791959 49.5336650 42.7096099 26.9723475 21.7879201
1.7755677 0.2521580 0.8641870 0.126576 -0.057044 0.002341 -2.8864509 -6.5999160 -3.8242643 39.9701081 43.6650042 31.7288867 23.5480000
1.9265663 0.2364833 0.6917935 0.130266 -0.086013 0.001661 -2.5366932 -3.8570018 -0.6731505 57.3138354 44.2503556 9.7851248 20.5805197
1.8623736 0.2593888 0.7530133 0.134649 -0.072658 0.002317 -3.4083216 -6.3949158 -1.9595127 49.0873709 45.7714416 17.6953657 21.9968603
1.7834652 0.2787604 0.8026450 0.136943 -0.058174 0.001870 -3.2931497 -7.8966291 -3.1765282 40.4977973 46.7170981 23.5666611 23.7103875
1.8459888 0.2824295 0.6857346 0.142444 -0.069091 0.001115 -3.8194701 -7.9166383 -1.1137516 46.8173978 48.1390708 8.4912002 22.7185416
1.7783547 0.3008967 0.7403000 0.144881 -0.057050 0.001127 -3.5579497 -9.1305696 -2.2727242 39.6808285 48.9471464 15.2372569 24.0882914
1.7608807 0.3183060 0.6793485 0.150058 -0.053819 0.000180 -3.5677511 -10.0098228 -1.1548561 37.7472133 50.2413822 7.3926025 24.5354923
1.7300056 0.3318653 0.6212299 0.152836 -0.048545 -0.000002 -3.6067742 -11.4497924 -0.0000001 34.8603473 51.4243790 -0.0009424 25.2537535
1.8134213 0.3014110 0.6212299 0.147125 -0.062778 0.000005 -3.6767402 -8.6529227 -0.0000000 43.1375510 49.6103891 -0.0018355 23.3625731
1.8956314 0.2612020 0.6212299 0.137552 -0.078915 -0.000001 -3.4257858 -5.9803583 0.0000000 52.9930270 46.5557991 -0.0003197 21.5286343
1.9729794 0.2097984 0.6212299 0.123084 -0.096781 0.000000 -0.5563043 -0.7069460 0.0000000 64.2899389 41.9507006 0.0000150 19.1746798
2.0418007 0.1459794 0.6212299 0.102457 -0.114845 0.000000 6.2150790 5.5270065 -0.0000000 76.2620292 35.0120861 -0.0004810 16.8983298
2.0975923 0.0694861 0.6212299 0.075277 -0.131072 -0.000000 17.5596458 10.0192969 -0.0000001 87.5727637 25.5253923 0.0000255 14.5329394
2.1353217 -0.0180990 0.6212299 0.042049 -0.142510 -0.000001 30.0493077 8.7386630 -0.0000003 96.0712211 13.6332207 0.0001751 12.8477438
2.1505328 -0.1127127 0.6212299 0.005010 -0.146368 0.000001 37.3748294 1.1059362 -0.0000003 100.0908559 0.2372207 -0.0002365 11.8835588
2.1409518 -0.2081795 0.6212299 -0.032161 -0.141516 -0.000001 34.5375605 -8.0254403 -0.0000003 98.7447034 -13.6288158 0.0002594 12.3232633
2.1075747 -0.2978187 0.6212299 -0.065756 -0.128922 -0.000001 23.7714052 -12.2596090 -0.0000002 92.1166113 -26.8779891 0.0001983 13.6446783
2.0542900 -0.3764241 0.6212299 -0.093305 -0.111175 0.000000 11.4329811 -9.6689441 -0.0000001 81.2570702 -38.1468550 0.0000049 15.8393962
1.9863755 -0.4413299 0.6212299 -0.114121 -0.091300 -0.000001 2.7151140 -3.4134249 -0.0000000 68.3122732 -46.5154567 0.0004007 18.0822062
1.9090120 -0.4921854 0.6212299 -0.129013 -0.071803 -0.000001 -1.5630429 2.8206799 0.0000000 55.4668544 -51.9751300 0.0008882 20.4580548
1.8265704 -0.5300968 0.6212299 -0.138980 -0.054005 -0.000000 -2.6857767 6.9314000 -0.0000000 43.8030245 -55.1171296 -0.0000884 22.3404978
1.7431974 -0.5567241 0.6212299 -0.145710 -0.038334 -0.000004 -2.7364024 10.4101375 -0.0000000 34.0226509 -57.1104342 0.0029610 24.2600161
1.6851153 -0.5669266 0.5634679 -0.146886 -0.029872 0.000673 -2.9585293 14.5700819 1.5093861 27.6395276 -54.2557083 -6.8656529 25.2087432
1.7013777 -0.5529138 0.5008704 -0.142842 -0.032893 0.001314 -2.1723143 9.5146012 2.2503345 30.1528533 -55.5766708 -15.8214567 24.6700975
1.7085251 -0.5312287 0.4361351 -0.136253 -0.034896 0.002008 -2.0507659 8.1783160 3.1591371 31.0635656 -53.1487454 -24.6249250 24.4650764
1.7047160 -0.5022009 0.3722358 -0.127780 -0.035584 0.002282 -1.8153283 6.7473813 3.7796217 31.1939974 -49.6464507 -33.2935453 24.0913873
1.6890815 -0.4666136 0.3116904 -0.116817 -0.034444 0.002174 -1.5212349 5.4009968 4.1390881 30.1228672 -45.1404877 -41.3618474 24.1181817
1.6615448 -0.4257419 0.2567270 -0.104330 -0.031356 0.001593 -1.1691546 4.0729037 4.1439231 28.1352188 -39.9522167 -48.4843655 24.0675984
1.6227037 -0.3811792 0.2090501 -0.090432 -0.026269 0.000737 -0.8536715 3.0115096 4.0152851 25.2520299 -34.3283490 -54.3891147 24.4055998
1.5736521 -0.3346247 0.1697113 -0.076083 -0.019519 -0.000210 -0.5736818 2.1365336 3.7337850 21.8947837 -28.5686278 -59.0319855 24.6586761
1.5157663 -0.2876777 0.1390930 -0.061420 -0.011487 -0.001000 -0.3568968 1.4979475 3.4774756 18.1687531 -22.9543267 -62.4501459 25.2900879
1.4505108 -0.2416999 0.1169981 -0.047374 -0.002912 -0.001450 -0.1851571 1.0012387 3.1828710 14.4909143 -17.6119693 -64.8076268 25.7226226
1.3793022 -0.1977522 0.1028032 -0.033994 0.005665 -0.001478 -0.0588276 0.6537742 3.0160270 10.9066931 -12.6711652 -66.2797205 26.4863549
1.3034502 -0.1566005 0.0956083 -0.021843 0.013679 -0.001097 0.0383297 0.3687382 2.7744177 7.6514306 -8.1963030 -67.1488309 26.9895719
1.2241970 -0.1187669 0.0943662 -0.010935 0.020668 -0.000375 0.1196426 0.1708928 2.8463110 4.7211513 -4.1521891 -67.3738091 27.7604844
1.1428308 -0.0845907 0.0979484 -0.001615 0.026418 0.000570 0.1421969 -0.0077324 2.1762868 2.2491339 -0.5902984 -67.8200270 28.1822372
1.0614524 -0.0544762 0.1051169 0.006342 0.030836 0.001678 0.5173069 -0.3722276 6.1281941 0.1586637 2.4666961 -66.0976106 28.9235550
1.7608807 0.3183060 0.5631113 0.150070 -0.053821 -0.000180 -3.5678090 -10.0099853 1.1548748 37.7429403 50.2415898 -7.3918915 24.5327266
1.7783546 0.3008967 0.5021597 0.144881 -0.057050 -0.001129 -3.5579169 -9.1304855 2.2727032 39.6801507 48.9475347 -15.2380167 24.0903733
1.7834652 0.2787604 0.4398148 0.136946 -0.058173 -0.001869 -3.2932013 -7.8967530 3.1765779 40.4969263 46.7160433 -23.5669170 23.7065400
1.7755677 0.2521580 0.3782727 0.126574 -0.057044 -0.002344 -2.8864227 -6.5998516 3.8242269 39.9704331 43.6655677 -31.7279843 23.5499410
1.7543651 0.2219125 0.3198381 0.114159 -0.053488 -0.002386 -2.3962427 -5.3388493 4.1947099 38.2039618 39.9628637 -39.4381105 23.5346153
1.7202821 0.1891963 0.2665982 0.100586 -0.047619 -0.001893 -1.8796513 -4.1813828 4.2994866 35.2729679 35.8552544 -46.3361683 23.7624388
1.6743985 0.1553320 0.2201347 0.086560 -0.039728 -0.000977 -1.4269802 -3.2620817 4.2973591 31.4403466 31.4344328 -52.1575373 24.1181797
1.6182407 0.1215891 0.1813797 0.072923 -0.030398 0.000162 -1.0065787 -2.4525878 4.0918829 27.0558655 27.0366552 -56.8759047 24.6323305
1.5535259 0.0890262 0.1506298 0.060043 -0.020162 0.001306 -0.6800837 -1.8595992 3.9151730 22.4397230 22.6693741 -60.4523361 25.2234714
1.4819478 0.0584155 0.1276626 0.048401 -0.009818 0.002209 -0.3995208 -1.3351557 3.5625470 17.8482492 18.6334040 -63.1035222 25.8726988
1.4050349 0.0302384 0.1119050 0.037859 0.000318 0.002803 -0.1983151 -0.9734476 3.3370655 13.5129652 14.7623645 -64.9026483 26.5203733
1.3240770 0.0047376 0.1025814 0.028545 0.009603 0.002977 -0.0430877 -0.6660436 3.0130127 9.5198903 11.2719448 -66.1042263 27.1693495
1.2400565 -0.0180121 0.0988421 0.020199 0.017909 0.002796 0.0648890 -0.4295931 2.6904396 5.9693623 8.0246016 -66.9038504 27.7863959
1.1533357 -0.0379287 0.0998597 0.012842 0.024877 0.002269 0.1427428 -0.2660337 2.5192975 2.8529068 5.1019049 -67.1920750 28.3399827
1.8459888 0.2824295 0.5567251 0.142436 -0.069090 -0.001123 -3.8194161 -7.9165265 1.1137358 46.8208332 48.1391066 -8.4878406 22.7205010
1.8623736 0.2593888 0.4894464 0.134651 -0.072658 -0.002314 -3.4083453 -6.3949603 1.9595263 49.0869190 45.7709768 -17.6972909 21.9959296
1.8633819 0.2318289 0.4217604 0.124322 -0.073626 -0.003559 -2.8487521 -4.9421373 2.4791538 49.5346154 42.7109438 -26.9709235 21.7909634
1.8490407 0.2002640 0.3562891 0.111215 -0.071297 -0.004187 -2.2394149 -3.6617352 2.6885576 48.3272566 38.7955799 -35.9850535 21.5971429
1.8197920 0.1658432 0.2956120 0.096783 -0.066082 -0.004140 -1.7810444 -2.7981631 2.8409462 45.2920332 34.3495065 -44.0841611 21.9079638
1.7768076 0.1300390 0.2418509 0.081494 -0.057958 -0.003428 -1.3790143 -2.1246820 2.8922930 41.0387416 29.5768666 -51.0417160 22.2147729
1.7218479 0.0943414 0.1963846 0.066725 -0.047814 -0.002265 -1.0923440 -1.6888967 3.0367148 35.7739899 24.7698291 -56.5828538 22.9645049
1.6569523 0.0600235 0.1597822 0.052745 -0.036201 -0.000968 -0.8230835 -1.3135327 3.1114878 30.1541931 20.0685550 -60.7322624 23.5801486
1.5841249 0.0280136 0.1319300 0.040385 -0.024130 0.000219 -0.5808344 -0.9951836 3.1365411 24.4494013 15.7263103 -63.6933045 24.5184945
1.5051068 -0.0011178 0.1122406 0.029308 -0.012029 0.001087 -0.3570086 -0.7025603 3.0236368 19.0730835 11.6708340 -65.6328618 25.2153923
1.4212274 -0.0270943 0.0998736 0.019863 -0.000757 0.001523 -0.1775434 -0.4710181 2.9160004 14.0533272 8.0864634 -66.7934022 26.1682099
1.3332558 -0.0498169 0.0939052 0.011449 0.009632 0.001547 -0.0313209 -0.2634449 2.6077662 9.6457317 4.8030445 -67.4662199 26.7781704
1.2410782 -0.0691651 0.0934773 0.004450 0.018646 0.001192 0.0713102 -0.1161858 2.3950458 5.6528609 1.9421910 -67.8061575 27.6813611
1.9265663 0.2364833 0.5506662 0.130272 -0.086014 -0.001659 -2.5367499 -3.8570882 0.6731655 57.3114191 44.2505422 -9.7858635 20.5786903
1.9394182 0.2074726 0.4774978 0.119803 -0.089717 -0.003602 -1.4692035 -1.9929677 0.7728642 59.5354528 41.0670613 -20.1541612 20.0111800
1.9343556 0.1743157 0.4049642 0.106478 -0.089606 -0.004954 -0.5746172 -0.7082116 0.4607292 59.3664591 36.9672439 -30.5786095 19.7295939
1.9118288 0.1380272 0.3362971 0.091066 -0.085598 -0.005587 -0.1588801 -0.1806507 0.1770827 56.7730473 32.2239565 -40.1999241 19.8793003
1.8730774 0.1001636 0.2743320 0.074659 -0.077775 -0.005262 -0.1591865 -0.1691825 0.2377174 52.1822280 27.0495757 -48.6019340 20.3411011
1.8201247 0.0624256 0.2210796 0.058561 -0.067001 -0.004240 -0.3587902 -0.3603539 0.7111167 46.0963881 21.8304434 -55.3140245 21.0980045
1.7554231 0.0263131 0.1775408 0.043552 -0.054073 -0.002849 -0.5446262 -0.5211233 1.4463115 39.2432385 16.7535945 -60.3018579 22.0083503
1.6814246 -0.0070714 0.1438009 0.030362 -0.040185 -0.001449 -0.5534329 -0.5062173 2.0256137 32.2436064 12.1288355 -63.7888599 23.0399553
1.6002419 -0.0370608 0.1192981 0.018951 -0.026098 -0.000348 -0.4688759 -0.4074625 2.4989051 25.5042950 7.9228169 -65.9525962 24.0698557
1.5134483 -0.0633422 0.1031088 0.009298 -0.012610 0.000304 -0.3082007 -0.2460781 2.6651096 19.3279760 4.2497819 -67.1607326 25.0760440
1.4219485 -0.0858154 0.0941945 0.001230 -0.000060 0.000485 -0.1481834 -0.0900820 2.7180652 13.7792998 0.9923146 -67.6904466 26.0470956
1.3258334 -0.1043991 0.0915597 -0.005522 0.011019 0.000223 -0.0063249 0.0461416 2.6714057 8.9459199 -1.7645204 -67.7276748 26.9263182
1.9999798 0.1789142 0.5447813 0.112763 -0.103995 -0.002276 1.7593060 1.9137852 -0.4322856 68.8814640 38.5829193 -11.1001694 18.3032913
2.0068086 0.1438683 0.4663232 0.099217 -0.106781 -0.004314 3.6769316 3.4811985 -1.8066031 70.5844483 34.2697900 -22.8019349 17.6570282
1.9934321 0.1055459 0.3898841 0.083203 -0.104866 -0.005735 4.2416697 3.5312821 -3.2052674 69.0182486 29.2106488 -34.0775910 17.7548834
1.9609040 0.0655450 0.3192268 0.065737 -0.097938 -0.006022 3.5968394 2.6424167 -3.8149333 64.5804827 23.6551275 -44.2200226 18.0908731
1.9114041 0.0257525 0.2572606 0.048491 -0.087114 -0.005364 2.1663228 1.3960650 -3.1115512 57.7656644 18.0659418 -52.4670584 19.0539455
1.8478358 -0.0121029 0.2056645 0.032361 -0.073108 -0.004089 0.8762632 0.4841705 -1.6910960 49.7218754 12.6623618 -58.7034109 20.0561180
1.7732277 -0.0467433 0.1649066 0.018452 -0.057637 -0.002588 0.0114625 0.0051112 -0.0300888 41.1963877 7.8125938 -62.9927129 21.4193651
1.6902435 -0.0774102 0.1345390 0.006570 -0.041468 -0.001348 -0.3418840 -0.1030221 1.2622150 32.9685763 3.4730486 -65.6179643 22.5626816
1.6008986 -0.1037746 0.1135874 -0.003006 -0.025809 -0.000518 -0.3928983 -0.0257298 2.1799031 25.3320249 -0.2065707 -67.0035614 23.9382441
1.5064526 -0.1257709 0.1008702 -0.010899 -0.011120 -0.000255 -0.2663899 0.1154832 2.5512194 18.6121063 -3.3529376 -67.5438531 24.9501382
1.4073875 -0.1434108 0.0952242 -0.017032 0.002096 -0.000469 -0.1126001 0.2591111 2.7884003 12.7021283 -5.9731223 -67.4931430 26.1563890
2.0624691 0.1088322 0.5393320 0.088954 -0.121246 -0.002513 10.3177233 7.5856384 -2.3964663 80.5188947 30.4715082 -12.4543873 15.9837453
2.0607382 0.0683493 0.4565306 0.072455 -0.121962 -0.004596 12.0844865 7.3513217 -5.6691587 80.8533865 25.0482062 -25.1967395 15.6870842
2.0369148 0.0261817 0.3775429 0.054350 -0.116920 -0.005587 10.8679945 5.3938989 -7.9240644 77.2154718 19.1751597 -37.1534437 16.0191983
1.9929813 -0.0156098 0.3064092 0.036078 -0.106575 -0.005477 7.6762805 2.9838520 -7.9458411 70.3039306 13.2518781 -47.3294286 16.9548915
1.9321517 -0.0550794 0.2458112 0.019189 -0.092072 -0.004413 4.2000259 1.1525947 -5.9639672 61.2023057 7.5705678 -55.2515284 18.2356082
1.8580776 -0.0907821 0.1968813 0.004596 -0.075231 -0.002991 1.6372664 0.2267412 -3.1723710 51.1996913 2.5376953 -60.7674781 19.7317872
1.7741141 -0.1218890 0.1594820 -0.007396 -0.057294 -0.001673 0.2062994 -0.0091071 -0.5546205 41.2351286 -1.8270577 -64.1835427 21.2679260