# volRat = 0.650000
# viscRat = 5.000000
# alpha = 0.750000
# shRate = 3.175000
# tnum = 4500
# time = 3.724680
VARIABLES = X, Y, Z, U, V, W, F_B0, F_B1, F_B2, F_0, F_1, F_2, T
ZONE N=2562 E=5120 F=FEPOINT ET=TRIANGLE
1.6484739 0.3533708 0.6212299 0.154690 -0.037805 0.000006 5.4408151 22.4236503 0.0000043 31.6607691 68.1762579 -0.0033828 26.3895010
-1.6609962 0.5735299 0.6212299 0.150089 0.026784 0.000004 -3.7945472 21.2767255 0.0000050 -28.0191556 71.1764792 -0.0026036 25.4361210
1.6609962 -0.5735300 0.6212299 -0.150090 -0.026785 -0.000004 3.7945356 -21.2766606 0.0000046 28.0197245 -71.1761152 0.0025624 25.4353981
-1.6484739 -0.3533709 0.6212299 -0.154689 0.037804 -0.000006 -5.4408001 -22.4235884 0.0000045 -31.6613487 -68.1758978 0.0033286 26.3888761
0.9815980 -0.0312449 1.1276645 0.011712 0.033579 -0.002747 -2.1038669 2.1632372 21.9984787 -2.3083953 5.7833663 76.4991265 29.1477977
0.9815980 -0.0312449 0.1147952 0.011722 0.033607 0.002781 -2.1097520 2.1693279 -22.0601040 -2.3227946 5.7610688 -76.5604548 29.1512046
-0.9815980 0.0312449 1.1276645 -0.011722 -0.033608 -0.002775 2.1090848 -2.1686017 22.0530407 2.3220467 -5.7598744 76.5536513 29.1512199
-0.9815980 0.0312449 0.1147952 -0.011711 -0.033580 0.002737 2.1028369 -2.1622124 -21.9877880 2.3071909 -5.7818875 -76.4887915 29.1476537
-0.0442976 0.3483563 0.8406596 0.090366 -0.008196 0.002673 -7.6276695 -81.8468384 -47.1653718 -1.8213830 -16.9394613 -4.9913706 32.7482745
0.0442977 -0.3483553 0.8406591 -0.090234 0.010625 0.001073 6.7144642 72.0537139 -41.5062659 0.9713897 7.2667156 0.7288216 32.8098856
-0.0442977 0.3483554 0.4018006 0.090282 -0.010137 -0.001340 -6.7647004 -72.5929274 41.8168128 -1.0212519 -7.7866042 -0.4481705 32.8149597
0.0442976 -0.3483562 0.4018002 -0.090318 0.008701 -0.002392 7.5687883 81.2147136 46.8010117 1.7635699 16.3283089 4.6545516 32.7443649
1.6714952 0.3461341 0.6713656 0.154821 -0.040858 -0.000045 -4.2057908 -16.0482324 -1.4241891 29.0621507 48.7944262 5.4932644 26.1823289
1.6884103 0.3336611 0.7262342 0.151392 -0.043183 0.000136 -2.9557314 -10.4350288 -2.1150629 31.6125722 51.1799107 12.9832453 25.6584763
1.6963825 0.3161723 0.7837543 0.145697 -0.044239 0.000325 -2.8444689 -9.4479896 -3.1122604 32.3049850 49.4209319 20.3261291 25.4617672
1.6935573 0.2940209 0.8415297 0.137248 -0.043595 0.000523 -2.5637905 -8.1695971 -3.8619744 32.3751217 47.1812786 27.8241686 25.1050273
1.6790185 0.2677933 0.8974635 0.127092 -0.041211 0.000430 -2.2586780 -7.0635907 -4.4898139 31.2949994 44.1175258 35.0112085 25.1370151
1.6526058 0.2383822 0.9495948 0.115163 -0.036877 0.000009 -1.8395045 -5.7984888 -4.7668621 29.4098409 40.5962227 41.7158690 25.0594208
1.6148206 0.2068864 0.9963045 0.102520 -0.030876 -0.000724 -1.4117978 -4.6335540 -4.8067123 26.6568043 36.7369763 47.6666355 25.3556769
1.5666785 0.1744678 1.0364545 0.089418 -0.023403 -0.001669 -1.0034261 -3.5758527 -4.6088103 23.3895838 32.6602307 52.7274034 25.5467985
1.5095187 0.1422039 1.0694445 0.076808 -0.015054 -0.002644 -0.6669189 -2.7398931 -4.3492358 19.6848474 28.5540374 56.8042132 26.0729121
1.4448186 0.1109842 1.0951734 0.064705 -0.006185 -0.003512 -0.3918630 -2.0504667 -3.9969006 15.9477758 24.4975439 59.9854325 26.4025330
1.3740525 0.0814601 1.1139345 0.053703 0.002594 -0.004111 -0.1837582 -1.5211498 -3.6517675 12.2171878 20.6547975 62.4192257 27.0487979
1.2986208 0.0540502 1.1262964 0.043541 0.010883 -0.004366 -0.0306397 -1.1092207 -3.3115613 8.7673348 16.9904894 64.1674925 27.4202617
1.2198784 0.0289815 1.1329925 0.034446 0.018353 -0.004255 0.0825965 -0.8472618 -3.2055915 5.5734172 13.5389132 65.2992039 28.0594124
1.1392388 0.0063438 1.1348603 0.026128 0.024750 -0.003757 0.1555237 -0.5689493 -2.8170564 2.8073970 10.3852003 66.3714063 28.3879625
1.0589048 -0.0137418 1.1328129 0.018706 0.029798 -0.002959 0.5098290 -0.9231712 -6.3869831 0.4182115 7.1507124 65.3007962 28.9848898
1.7723890 -0.5441650 0.6874780 -0.142092 -0.044046 -0.001325 -2.7150021 8.8077998 -1.1739820 37.1469563 -55.2376593 9.0255871 23.5378636
1.7893781 -0.5244053 0.7560455 -0.136117 -0.047989 -0.002030 -2.5684011 7.3868962 -2.1297071 39.5235262 -53.6874877 18.5479674 23.0789220
1.7936748 -0.4969911 0.8250354 -0.127835 -0.050279 -0.002721 -2.2750415 5.9440713 -2.7910764 40.4726395 -50.2866534 28.3205827 22.6821133
1.7846610 -0.4623545 0.8917633 -0.117061 -0.050444 -0.002953 -1.8522966 4.4831103 -3.0774126 39.8935068 -45.7826495 37.5931307 22.5394230
1.7621362 -0.4216773 0.9535681 -0.104401 -0.048253 -0.002613 -1.4429936 3.2925883 -3.1401177 37.9113582 -40.2999157 45.8992732 22.5413725
1.7266702 -0.3766370 1.0082044 -0.090067 -0.043510 -0.001855 -1.0736776 2.3483415 -3.0422660 34.6979315 -34.3330869 52.8792787 22.8266366
1.6794881 -0.3291207 1.0541478 -0.074986 -0.036521 -0.000868 -0.7996647 1.7037906 -2.9891708 30.6079986 -28.0984510 58.3475613 23.2692795
1.6222156 -0.2809448 1.0906967 -0.059670 -0.027701 0.000077 -0.5732008 1.2095309 -2.9182924 26.0344616 -22.0406298 62.3183075 23.8805233
1.5565991 -0.2336523 1.1178858 -0.044790 -0.017842 0.000716 -0.3971915 0.8461119 -2.9208750 21.3571459 -16.2823104 64.9799982 24.5878913
1.4842940 -0.1884262 1.1363036 -0.030660 -0.007598 0.000922 -0.2393280 0.5299206 -2.8435917 16.8111577 -11.0509597 66.5875801 25.3759147
1.4067411 -0.1460914 1.1468789 -0.017820 0.002185 0.000657 -0.1111365 0.2764936 -2.7998124 12.6447971 -6.2863358 67.4111411 26.1433031
1.3251131 -0.1071749 1.1507156 -0.006299 0.011119 -0.000010 -0.0046336 0.0621455 -2.6756885 8.8911842 -2.1087683 67.6724905 26.9198930
1.2402613 -0.0719768 1.1489583 0.003680 0.018714 -0.000958 0.0726271 -0.1016356 -2.3942703 5.6088548 1.6035495 67.7753383 27.6657409
1.1524117 -0.0407139 1.1427155 0.012116 0.024959 -0.002053 0.1418733 -0.2471025 -2.4839462 2.8143467 4.7461400 67.2230740 28.3237649
1.8577285 -0.5116170 0.6937538 -0.133779 -0.060600 -0.001214 -2.5234555 5.6028281 -0.9039322 47.9446059 -53.4328839 10.3298114 21.6943748
1.8735556 -0.4852714 0.7682093 -0.125960 -0.065377 -0.002437 -1.8855115 3.6909532 -1.3022047 50.5321992 -50.2318897 21.3044785 20.9652230
1.8734855 -0.4513604 0.8416845 -0.115162 -0.067321 -0.002963 -1.2497400 2.1999303 -1.2855717 50.9551207 -45.7684565 31.9847673 20.7658260
1.8576433 -0.4107515 0.9110997 -0.102329 -0.066546 -0.002972 -0.7294166 1.1698737 -1.0229254 49.4240416 -40.0657948 41.8569274 20.6135516
1.8266727 -0.3651113 0.9736276 -0.087367 -0.062448 -0.002428 -0.4865940 0.7166838 -0.8988972 45.9282727 -33.7065665 50.2641164 21.0057416
1.7819806 -0.3165027 1.0271612 -0.071703 -0.055466 -0.001430 -0.4229796 0.5728793 -1.0212349 41.1465063 -26.9829661 56.8751218 21.4065290
1.7255152 -0.2669836 1.0705641 -0.055569 -0.045871 -0.000409 -0.4682854 0.5777580 -1.4925452 35.4596810 -20.4217385 61.6154611 22.2801962
1.6594060 -0.2183141 1.1036450 -0.039956 -0.034706 0.000350 -0.4406186 0.4798930 -1.9047337 29.6062913 -14.2535660 64.8014014 23.0393864
1.5856435 -0.1718182 1.1269325 -0.025103 -0.022732 0.000631 -0.3841694 0.3373517 -2.3681140 23.8291614 -8.6640223 66.6181455 24.1136251
1.5058763 -0.1283871 1.1414073 -0.011719 -0.010986 0.000410 -0.2654627 0.1304779 -2.5611591 18.5467600 -3.6619054 67.4859394 24.9436982
1.4212933 -0.0885585 1.1482558 0.000401 0.000070 -0.000298 -0.1462891 -0.0741340 -2.7198483 13.7233610 0.6624513 67.6588441 26.0433015
1.3324969 -0.0526318 1.1487065 0.010629 0.009740 -0.001332 -0.0295640 -0.2474271 -2.6062799 9.5969910 4.4723134 67.4566901 26.7647992
1.2391820 -0.0208369 1.1439090 0.019417 0.018025 -0.002561 0.0665343 -0.4135347 -2.6953072 5.9278242 7.6765158 66.9092962 27.7791814
1.9386481 -0.4672689 0.6993230 -0.121657 -0.079304 -0.001389 -0.2335693 0.3607546 -0.0717295 60.1915678 -49.1478324 11.7332273 19.5158431
1.9506445 -0.4340025 0.7788235 -0.111123 -0.083998 -0.002242 1.1325841 -1.5216795 0.6775231 62.5171798 -44.7698863 23.8370950 18.9672191
1.9440463 -0.3935920 0.8558969 -0.097888 -0.085155 -0.002655 1.9581011 -2.3139674 1.7615487 61.9634333 -38.9548026 35.4691787 18.7423672
1.9195395 -0.3475755 0.9269302 -0.082574 -0.082250 -0.002218 1.9837916 -2.0646597 2.4541865 58.6985934 -32.3024110 45.6048829 18.9864040
1.8786955 -0.2981252 0.9890193 -0.066204 -0.075616 -0.001294 1.3528027 -1.2257071 2.2216993 53.2677494 -25.1347466 53.7527123 19.5771839
1.8238398 -0.2475340 1.0403885 -0.049402 -0.065550 -0.000246 0.5754894 -0.4385833 1.2434938 46.4863166 -18.1405710 59.7159731 20.4958738
1.7575999 -0.1977919 1.0804593 -0.033079 -0.053179 0.000564 -0.0259829 0.0152684 -0.0745109 39.1996222 -11.5634425 63.6848483 21.5562598
1.6824508 -0.1503792 1.1096228 -0.017738 -0.039470 0.000891 -0.3298351 0.1143282 -1.2875904 31.9776339 -5.6859224 65.9416414 22.7427515
1.6004081 -0.1062570 1.1288818 -0.003826 -0.025643 0.000640 -0.3922847 -0.0138355 -2.1869840 25.2579785 -0.5066210 66.9727460 23.9256878
1.5128738 -0.0659766 1.1395325 0.008459 -0.012442 -0.000150 -0.3057600 -0.2305873 -2.6633840 19.2626614 3.9261656 67.1566639 25.0634168
1.4205431 -0.0298340 1.1429291 0.019028 -0.000590 -0.001338 -0.1748544 -0.4523349 -2.9093016 13.9929986 7.7503910 66.8124090 26.1497579
1.3232697 0.0019496 1.1403601 0.027739 0.009764 -0.002774 -0.0408728 -0.6446920 -3.0021237 9.4647805 10.9247134 66.1490806 27.1543763
2.0119120 -0.4095439 0.7043248 -0.104132 -0.099006 -0.001156 5.6463721 -5.9816424 1.5360279 73.0642337 -42.3456729 13.0237872 17.2407172
2.0173265 -0.3694774 0.7878178 -0.090687 -0.102847 -0.001772 7.6581476 -6.8549389 4.1061212 74.4618756 -36.5871960 26.1980961 16.6622764
2.0018358 -0.3233760 0.8671326 -0.074930 -0.101783 -0.001458 7.5994058 -5.7114392 6.1924646 72.0441993 -29.7465594 38.2378308 16.8814336
1.9669042 -0.2734518 0.9383054 -0.057932 -0.096051 -0.000603 5.9164977 -3.6295130 6.6949799 66.5131781 -22.3268794 48.3427752 17.3909395
1.9151408 -0.2221957 0.9986115 -0.040551 -0.085812 0.000506 3.5068112 -1.6337981 5.3169258 58.7641708 -15.0173966 55.9536243 18.5363783
1.8497322 -0.1718270 1.0468239 -0.023843 -0.072479 0.001412 1.5036020 -0.4363200 3.0264536 50.0487857 -8.1527366 61.1299729 19.7181844
1.7737823 -0.1239848 1.0830134 -0.008186 -0.057099 0.001732 0.2009184 -0.0116071 0.5415851 41.1581097 -2.0894043 64.1596980 21.2631778
1.6898560 -0.0796976 1.1081248 0.005749 -0.041290 0.001440 -0.3411089 -0.0965169 -1.2639960 32.8986958 3.1932174 65.6168266 22.5500788
1.5997637 -0.0395167 1.1235364 0.018112 -0.025912 0.000471 -0.4652263 -0.3924521 -2.4924423 25.4406266 7.6211118 65.9768820 24.0617866
1.5045116 -0.0037069 1.1307545 0.028474 -0.011856 -0.000928 -0.3529651 -0.6820762 -3.0129315 19.0109421 11.3620783 65.6771196 25.2017581
1.4043084 0.0275641 1.1312288 0.037031 0.000502 -0.002621 -0.1947863 -0.9485089 -3.3236934 13.4613428 14.4406314 64.9694578 26.5072820
2.0730557 -0.3378952 0.7084328 -0.080183 -0.117896 -0.000703 15.7230360 -10.7774496 3.9055016 85.0406376 -32.5911193 14.0959909 15.0112625
2.0692049 -0.2920567 0.7945100 -0.064059 -0.119527 -0.000515 16.7292677 -9.0617232 8.2881113 84.4571533 -25.7246125 27.8146326 14.8656123
2.0427821 -0.2421305 0.8743813 -0.046457 -0.115251 0.000343 14.0306515 -5.6704911 10.6810366 79.6251965 -18.2824664 39.9696399 15.3972718
1.9963121 -0.1907466 0.9440929 -0.028733 -0.105549 0.001624 9.2993930 -2.4052337 9.9355666 71.5270217 -10.8336972 49.6128604 16.5526253
1.9334127 -0.1403210 1.0014111 -0.011722 -0.091707 0.002614 4.7435188 -0.4201694 6.8627574 61.5502130 -3.8265670 56.4856687 18.0438945
1.8578763 -0.0926396 1.0457960 0.003838 -0.075046 0.003025 1.6332768 0.2114042 3.1718671 51.1293581 2.2991362 60.7761035 19.7200768
1.7729611 -0.0487845 1.0779386 0.017674 -0.057451 0.002652 0.0140408 0.0060927 0.0369716 41.1277832 7.5532891 63.0229240 21.4026735
1.6810572 -0.0092881 1.0992139 0.029564 -0.039995 0.001543 -0.5479083 -0.4923147 -2.0139361 32.1772331 11.8512658 63.8423699 23.0250448
1.5836307 0.0256432 1.1112452 0.039576 -0.023926 -0.000092 -0.5748346 -0.9723787 -3.1226432 24.3864048 15.4317982 63.7664483 24.4951643
1.4813119 0.0559279 1.1156520 0.047601 -0.009605 -0.002059 -0.3943157 -1.3070237 -3.5474122 17.7882639 18.3232546 63.1989691 25.8534488
2.1169157 -0.2537035 0.7111629 -0.049795 -0.133300 0.000117 27.2650892 -10.2720793 6.3590689 93.9110672 -20.2963771 14.6961277 13.2207250
2.1016682 -0.2042921 0.7980416 -0.031767 -0.131363 0.001074 24.8782963 -6.0004693 11.7109713 90.7905588 -12.9805004 28.5533046 13.4823383
2.0632413 -0.1533921 0.8766673 -0.013703 -0.122965 0.002529 17.8762672 -1.7758744 13.0779158 83.2536617 -5.6022420 40.3268234 14.6976730
2.0052766 -0.1035530 0.9435026 0.003274 -0.109248 0.003825 10.1521763 0.6479333 10.5426533 72.8266820 1.3197211 49.2998979 16.2185634
1.9321011 -0.0566704 0.9970125 0.018470 -0.091910 0.004437 4.2052123 1.1279050 5.9839518 61.1513206 7.3611113 55.2872159 18.2222615
1.8477065 -0.0138592 1.0373305 0.031629 -0.072944 0.004139 0.8837470 0.4811532 1.7103482 49.6671398 12.4371874 58.7594038 20.0387933
1.7551792 0.0243840 1.0656254 0.042795 -0.053890 0.002925 -0.5358790 -0.5070089 -1.4284298 39.1892218 16.5103897 60.3790761 21.9932829
1.6565684 0.0579288 1.0835458 0.051984 -0.036004 0.001073 -0.8146843 -1.2885863 -3.0952639 30.0955284 19.8101707 60.8266701 23.5625338
1.5529872 0.0867894 1.0928402 0.059280 -0.019950 -0.001178 -0.6727060 -1.8274449 -3.8996254 22.3824127 22.3985576 60.5653680 25.2103965
2.1388303 -0.1608723 0.7120594 -0.014390 -0.142274 0.001040 34.2848063 -3.5169088 7.7075688 97.9765034 -6.6836965 14.7937916 12.3260248
2.1112830 -0.1110427 0.7977855 0.003905 -0.135986 0.002771 26.9254276 0.9469276 12.3621389 92.1834146 0.4610240 28.2858246 13.2675608
2.0612289 -0.0624095 0.8735475 0.020782 -0.123499 0.004447 16.5738615 3.1760519 11.9653077 82.3360367 7.2089331 39.3598521 14.9104686
1.9930934 -0.0169204 0.9365026 0.035436 -0.106459 0.005492 7.7014969 2.9600356 7.9884783 70.2741862 13.0759760 47.3855147 16.9342982
1.9114227 0.0243044 0.9858322 0.047837 -0.086974 0.005402 2.1829459 1.3946125 3.1438999 57.7271845 17.8733511 52.5439421 19.0297514
1.8200123 0.0608168 1.0221916 0.057893 -0.066836 0.004298 -0.3461585 -0.3451572 -0.6884919 46.0485734 21.6213430 55.4124810 21.0781784
1.7215795 0.0925641 1.0470539 0.066044 -0.047617 0.002346 -1.0816173 -1.6621420 -3.0206530 35.7180350 24.5424016 56.6983827 22.9410834
1.6178017 0.1196532 1.0622064 0.072229 -0.030178 -0.000061 -0.9974045 -2.4186061 -4.0790238 26.9992470 26.7932542 57.0090164 24.6093237
2.1362575 -0.0654444 0.7109079 0.022875 -0.142822 0.001919 32.0768774 5.1430226 7.1262003 96.6955475 6.9626970 14.4149844 12.5836438
2.0971292 -0.0185019 0.7936861 0.039622 -0.132490 0.004042 21.5580019 6.6922272 9.8973110 88.5711062 13.4363127 27.1497918 13.9419873
2.0371847 0.0251471 0.8653789 0.053787 -0.116848 0.005608 10.9199339 5.3853204 7.9789366 77.2137672 19.0320911 37.2135881 15.9942983
1.9610694 0.0644092 0.9238938 0.065175 -0.097834 0.006060 3.6249756 2.6490198 3.8551847 64.5624798 23.5005667 44.3045427 18.0664474
1.8730969 0.0988882 0.9689816 0.074081 -0.077635 0.005316 -0.1424875 -0.1507346 -0.2135115 52.1499054 26.8819099 48.7086484 20.3226299
1.7766542 0.1286017 1.0016417 0.080897 -0.057780 0.003504 -1.3667549 -2.0973106 -2.8790894 40.9943691 29.3917476 51.1637789 22.1932408
1.6740577 0.1537289 1.0235158 0.085947 -0.039516 0.001064 -1.4164012 -3.2273141 -4.2892540 31.3891784 31.2336351 52.2975189 24.1032239
2.1098216 0.0259960 0.7078569 0.058221 -0.135148 0.002424 22.0940989 9.5502240 4.9677605 90.4413665 19.6574055 13.6283552 13.9040082
2.0611375 0.0675640 0.7863133 0.071995 -0.121933 0.004611 12.1565074 7.3666388 5.7159760 80.8710405 24.9364226 25.2499278 15.6582506
1.9937261 0.1047038 0.8531818 0.082754 -0.104796 0.005764 4.2789537 3.5506719 3.2425316 69.0166540 29.0916441 34.1599466 17.7264665
1.9119686 0.1370754 0.9069842 0.090603 -0.085483 0.005633 -0.1400271 -0.1587542 -0.1566126 56.7525953 32.0936531 40.3064357 19.8554222
1.8197459 0.1647458 0.9478673 0.096302 -0.065912 0.004196 -1.7687617 -2.7718587 -2.8335331 45.2530182 34.2000371 44.2115383 21.8839639
1.7200327 0.1879365 0.9770552 0.100086 -0.047415 0.001962 -1.8692072 -4.1497553 -4.2985749 35.2216308 35.6906264 46.4805069 23.7422308
2.0629456 0.1082457 0.7033514 0.088581 -0.121232 0.002524 10.3897360 7.6195382 2.4192761 80.5495855 30.3836669 12.4860748 15.9544728
2.0071936 0.1432765 0.7766048 0.098865 -0.106727 0.004346 3.7142056 3.5093414 1.8303999 70.5971266 34.1810255 22.8638177 17.6283891
1.9345908 0.1736536 0.8382058 0.106120 -0.089506 0.004997 -0.5575618 -0.6860068 -0.4486723 59.3579238 36.8717481 30.6708460 19.7091810
1.8490852 0.1994829 0.8871042 0.110843 -0.071144 0.004244 -2.2297634 -3.6407611 -2.6887210 48.2962891 38.6852891 36.0986025 21.5770976
1.7541952 0.2209832 0.9237512 0.113754 -0.053291 0.002449 -2.3871792 -5.3132076 -4.2011924 38.1612215 39.8372898 39.5720854 23.5197216
2.0004021 0.1785081 0.6979375 0.112504 -0.103943 0.002288 1.7871482 1.9416214 0.4405703 68.8951712 38.5177798 11.1361221 18.2754957
1.9397106 0.2070438 0.7654875 0.119553 -0.089624 0.003630 -1.4578560 -1.9757184 -0.7698468 59.5288341 40.9999380 20.2233628 19.9894171
1.8634916 0.2313178 0.8214763 0.124057 -0.073475 0.003598 -2.8433177 -4.9295717 -2.4857019 49.5075313 42.6288780 27.0686586 21.7684897
1.7754599 0.2515243 0.8651858 0.126287 -0.056852 0.002390 -2.8804568 -6.5845150 -3.8370827 39.9263442 43.5702567 31.8479098 23.5326073
1.9268673 0.2362158 0.6920756 0.130083 -0.085906 0.001679 -2.5327109 -3.8493728 -0.6748943 57.3078617 44.1997330 9.8211714 20.5599813
1.8625157 0.2590839 0.7535722 0.134466 -0.072506 0.002349 -3.4068849 -6.3917206 -1.9681070 49.0631529 45.7137593 17.7636493 21.9779832
1.7833982 0.2783685 0.8034525 0.136743 -0.057981 0.001908 -3.2904935 -7.8927490 -3.1918025 40.4561025 46.6473218 23.6614861 23.6964127
1.8461233 0.2822580 0.6860288 0.142322 -0.068932 0.001129 -3.8225081 -7.9254977 -1.1203760 46.7891566 48.0931498 8.5268392 22.7031067
1.7783038 0.3006805 0.7408676 0.144753 -0.056857 0.001153 -3.5561267 -9.1325809 -2.2848928 39.6404307 48.8999336 15.3040979 24.0764089
1.7608164 0.3181950 0.6796422 0.149963 -0.053637 0.000189 -3.5648071 -10.0120535 -1.1610308 37.7093796 50.2089955 7.4274035 24.5247962
1.7298825 0.3317952 0.6212299 0.152788 -0.048295 -0.000003 -3.6144467 -11.4899680 -0.0000000 34.8067740 51.3658922 -0.0008028 25.2454854
1.8134957 0.3013003 0.6212299 0.147029 -0.062598 0.000006 -3.6804939 -8.6674227 -0.0000000 43.1072196 49.5713239 -0.0024143 23.3467596
1.8958832 0.2610184 0.6212299 0.137417 -0.078790 -0.000002 -3.4266709 -5.9817467 0.0000000 52.9780181 46.5144721 -0.0002474 21.5118971
1.9733749 0.2095006 0.6212299 0.122879 -0.096708 0.000000 -0.5425206 -0.6889019 0.0000000 64.2976627 41.8970149 -0.0000027 19.1492849
2.0422863 0.1455221 0.6212299 0.102155 -0.114826 0.000001 6.2677615 5.5642601 -0.0000001 76.2906151 34.9416555 -0.0005858 16.8698964
2.0980879 0.0688318 0.6212299 0.074859 -0.131073 -0.000000 17.6639254 10.0452066 -0.0000002 87.6062433 25.4274611 0.0000379 14.4987235
2.1357235 -0.0189604 0.6212299 0.041508 -0.142489 -0.000001 30.1736666 8.7079325 -0.0000004 96.0878479 13.5122012 0.0002555 12.8171619
2.1507324 -0.1137469 0.6212299 0.004381 -0.146267 0.000001 37.4383220 1.0109542 -0.0000005 100.0652468 0.0994682 -0.0003705 11.8594949
2.1408676 -0.2093076 0.6212299 -0.032822 -0.141306 -0.000001 34.4850811 -8.1209255 -0.0000005 98.6637058 -13.7749280 0.0003917 12.3158201
2.1071741 -0.2989427 0.6212299 -0.066374 -0.128613 -0.000001 23.6334104 -12.2820301 -0.0000003 91.9691102 -27.0172277 0.0001864 13.6480783
2.0535878 -0.3774584 0.6212299 -0.093833 -0.110797 0.000000 11.2904835 -9.6083430 -0.0000002 81.0551382 -38.2620216 -0.0000363 15.8552774
1.9854128 -0.4422200 0.6212299 -0.114540 -0.090911 -0.000001 2.6205182 -3.3142005 -0.0000000 68.0828303 -46.5878302 0.0004568 18.0993539
1.9078360 -0.4929075 0.6212299 -0.129317 -0.071427 -0.000002 -1.6046866 2.9139365 0.0000000 55.2330339 -52.0103754 0.0010844 20.4788300
1.8252240 -0.5306485 0.6212299 -0.139200 -0.053681 0.000001 -2.6899479 6.9906315 0.0000000 43.5895148 -55.1164354 -0.0005456 22.3552319
1.7417197 -0.5571179 0.6212299 -0.145835 -0.038078 -0.000005 -2.7174176 10.4240804 0.0000000 33.8316286 -57.1012786 0.0035859 24.2764127
1.6836021 -0.5672409 0.5637264 -0.146993 -0.029632 0.000664 -2.9327086 14.5814188 1.5025991 27.4808684 -54.2462709 -6.8279012 25.2210387
1.6999582 -0.5533402 0.5013864 -0.142989 -0.032657 0.001278 -2.1616031 9.5528739 2.2474860 29.9841339 -55.5598987 -15.7345713 24.6802573
1.7072230 -0.5318217 0.4368838 -0.136455 -0.034669 0.001954 -2.0443442 8.2240926 3.1595059 30.9001880 -53.1569053 -24.4971444 24.4774328
1.7035437 -0.5030090 0.3731723 -0.128048 -0.035361 0.002216 -1.8120859 6.7953339 3.7843933 31.0409682 -49.6919009 -33.1338505 24.1015798
1.6880409 -0.4676750 0.3127571 -0.117163 -0.034233 0.002099 -1.5215103 5.4534134 4.1525785 29.9840218 -45.2238160 -41.1785154 24.1299758
1.6606282 -0.4270809 0.2578601 -0.104758 -0.031166 0.001508 -1.1713555 4.1242867 4.1656652 28.0135489 -40.0762859 -48.2886822 24.0756758
1.6218942 -0.3828042 0.2101859 -0.090938 -0.026106 0.000641 -0.8560297 3.0581613 4.0423704 25.1459874 -34.4944370 -54.1924828 24.4143117
1.5729258 -0.3365281 0.1707919 -0.076665 -0.019386 -0.000322 -0.5752296 2.1762948 3.7629771 21.8050488 -28.7735102 -58.8435728 24.6633606
1.5150941 -0.2898369 0.1400698 -0.062067 -0.011384 -0.001134 -0.3570449 1.5302403 3.5041854 18.0929877 -23.1959760 -62.2780663 25.2930780
1.4498606 -0.2440788 0.1178347 -0.048069 -0.002835 -0.001609 -0.1842536 1.0273555 3.2061679 14.4269067 -17.8834761 -64.6563399 25.7221956
1.3786413 -0.2003040 0.1034767 -0.034721 0.005722 -0.001663 -0.0571715 0.6755324 3.0343637 10.8533859 -12.9684292 -66.1524887 26.4839542
1.3027475 -0.1592705 0.0961088 -0.022581 0.013721 -0.001306 0.0401931 0.3867294 2.7862010 7.6066242 -8.5115776 -67.0488893 26.9832173
1.2234257 -0.1214958 0.0946960 -0.011664 0.020699 -0.000603 0.1215135 0.1882913 2.8541438 4.6828827 -4.4805583 -67.2993765 27.7534790
1.1419719 -0.0873184 0.0981199 -0.002318 0.026433 0.000316 0.1453888 0.0052813 2.2098953 2.2212601 -0.9245984 -67.7385480 28.1721613
1.0604988 -0.0571463 0.1051504 0.005687 0.030833 0.001503 0.5087464 -0.3291525 6.0026957 0.1263862 2.1456370 -66.1883266 28.9116099
1.7608164 0.3181950 0.5628176 0.149977 -0.053639 -0.000190 -3.5648797 -10.0122574 1.1610544 37.7046987 50.2091515 -7.4264561 24.5215904
1.7783038 0.3006805 0.5015922 0.144754 -0.056857 -0.001154 -3.5560884 -9.1324826 2.2848682 39.6393111 48.9004829 -15.3050981 24.0789122
1.7833982 0.2783685 0.4390072 0.136745 -0.057980 -0.001908 -3.2905570 -7.8929015 3.1918642 40.4554783 46.6460513 -23.6615844 23.6919976
1.7754599 0.2515243 0.3772740 0.126285 -0.056852 -0.002393 -2.8804252 -6.5844430 3.8370406 39.9266877 43.5709846 -31.8467990 23.5347370
1.7541951 0.2209832 0.3187085 0.113761 -0.053289 -0.002446 -2.3872264 -5.3133126 4.2012754 38.1587841 39.8356356 -39.5736888 23.5165619
1.7200327 0.1879365 0.2654045 0.100082 -0.047415 -0.001965 -1.8691987 -4.1497364 4.2985553 35.2231142 35.6915682 -46.4787062 23.7438200
1.6740577 0.1537289 0.2189439 0.085951 -0.039514 -0.001063 -1.4164240 -3.2273662 4.2893233 31.3877547 31.2312623 -52.2988300 24.0982630
1.6178017 0.1196532 0.1802533 0.072232 -0.030181 0.000059 -0.9974174 -2.4186376 4.0790769 26.9981158 26.7960272 -57.0070173 24.6133648
1.5529872 0.0867894 0.1496196 0.059281 -0.019945 0.001180 -0.6727165 -1.8274736 3.8996867 22.3817306 22.3942130 -60.5668598 25.2039115
1.4813119 0.0559279 0.1268077 0.047601 -0.009613 0.002055 -0.3943224 -1.3070463 3.5474733 17.7885834 18.3295808 -63.1960210 25.8552093
1.4043083 0.0275641 0.1112309 0.037039 0.000505 0.002621 -0.1948143 -0.9486454 3.3241715 13.4570105 14.4361276 -64.9700282 26.5039250
1.3232697 0.0019496 0.1020996 0.027734 0.009756 0.002771 -0.0408605 -0.6444970 3.0012157 9.4675920 10.9323513 -66.1477833 27.1541533
1.2391820 -0.0208369 0.0985507 0.019415 0.018020 0.002560 0.0665650 -0.4137258 2.6965535 5.9263532 7.6762929 -66.9080113 27.7726458
1.1524117 -0.0407139 0.0997443 0.012118 0.024936 0.002047 0.1419817 -0.2472912 2.4858435 2.8134530 4.7605929 -67.2191446 28.3284536
1.8461233 0.2822580 0.5564310 0.142313 -0.068931 -0.001138 -3.8224397 -7.9253560 1.1203560 46.7930381 48.0932554 -8.5227657 22.7053092
1.8625157 0.2590839 0.4888875 0.134468 -0.072506 -0.002344 -3.4069110 -6.3917696 1.9681221 49.0627585 45.7131336 -17.7659370 21.9768663
1.8634916 0.2313178 0.4209834 0.124054 -0.073478 -0.003602 -2.8432567 -4.9294661 2.4856487 49.5083041 42.6304730 -27.0672044 21.7720068
1.8490852 0.1994829 0.3553555 0.110841 -0.071143 -0.004242 -2.2297817 -3.6407912 2.6887432 48.2967501 38.6839716 -36.1001281 21.5751009
1.8197459 0.1647458 0.2945924 0.096298 -0.065917 -0.004201 -1.7687161 -2.7717873 2.8334600 45.2543942 34.2023942 -44.2097523 21.8870631
1.7766542 0.1286017 0.2408180 0.080899 -0.057778 -0.003501 -1.3667586 -2.0973163 2.8790971 40.9931414 29.3900261 -51.1659615 22.1926384
1.7215795 0.0925641 0.1954058 0.066038 -0.047622 -0.002349 -1.0815840 -1.6620908 3.0205600 35.7205322 24.5448952 -56.6969877 22.9441727
1.6565684 0.0579288 0.1589139 0.051982 -0.036001 -0.001071 -0.8146777 -1.2885758 3.0952388 30.0957737 19.8074097 -60.8282631 23.5603748
1.5836307 0.0256432 0.1312146 0.039575 -0.023932 0.000091 -0.5748077 -0.9723333 3.1224974 24.3870423 15.4349805 -63.7661007 24.5015665
1.5045116 -0.0037069 0.1117052 0.028469 -0.011845 0.000930 -0.3529643 -0.6820747 3.0129246 19.0121813 11.3552003 -65.6788100 25.1988709
1.4205431 -0.0298340 0.0995307 0.019025 -0.000600 0.001337 -0.1748335 -0.4522809 2.9089542 13.9952858 7.7550332 -66.8126271 26.1545805
1.3324969 -0.0526318 0.0937532 0.010633 0.009754 0.001332 -0.0295663 -0.2474464 2.6064824 9.5943672 4.4615692 -67.4572774 26.7659273
1.2402613 -0.0719768 0.0935014 0.003679 0.018717 0.000959 0.0726174 -0.1016220 2.3939493 5.6106362 1.6008728 -67.7766700 27.6701512
1.9268673 0.2362158 0.5503842 0.130090 -0.085908 -0.001676 -2.5327835 -3.8494833 0.6749137 57.3050950 44.1999164 -9.8222049 20.5579533
1.9397106 0.2070438 0.4769722 0.119549 -0.089623 -0.003634 -1.4578300 -1.9756832 0.7698331 59.5297516 40.9998372 -20.2223871 19.9900107
1.9345908 0.1736536 0.4042540 0.106123 -0.089505 -0.004996 -0.5576380 -0.6861006 0.4487337 59.3566134 36.8710324 -30.6711082 19.7062785
1.9119686 0.1370755 0.3354755 0.090603 -0.085483 -0.005634 -0.1400031 -0.1587270 0.1565858 56.7521772 32.0941840 -40.3063529 19.8573932
1.8730969 0.0988882 0.2734781 0.074083 -0.077633 -0.005316 -0.1425494 -0.1508001 0.2136042 52.1491859 26.8803340 -48.7088037 20.3188837
1.8200123 0.0608168 0.2202681 0.057892 -0.066837 -0.004300 -0.3461484 -0.3451471 0.6884716 46.0491094 21.6226585 -55.4115008 21.0792298
1.7551792 0.0243840 0.1768343 0.042802 -0.053889 -0.002923 -0.5359290 -0.5070562 1.4285631 39.1861435 16.5088526 -60.3796968 21.9906968
1.6810572 -0.0092881 0.1432458 0.029562 -0.039997 -0.001545 -0.5479076 -0.4923141 2.0139336 32.1784687 11.8531934 -63.8413834 23.0253489
1.5997637 -0.0395167 0.1189234 0.018116 -0.025914 -0.000472 -0.4652628 -0.3924829 2.4926377 25.4384116 7.6210388 -65.9764582 24.0567390
1.5128738 -0.0659766 0.1029272 0.008460 -0.012448 0.000149 -0.3057575 -0.2305855 2.6633624 19.2622011 3.9305355 -67.1561941 25.0660091
1.4212933 -0.0885585 0.0942039 0.000402 0.000069 0.000297 -0.1463053 -0.0741423 2.7201500 13.7215454 0.6618634 -67.6582511 26.0370990
1.3251131 -0.1071749 0.0917442 -0.006308 0.011102 0.000010 -0.0046334 0.0621428 2.6755722 8.8952176 -2.0971151 -67.6730598 26.9186790
2.0004021 0.1785081 0.5445223 0.112500 -0.103942 -0.002292 1.7872225 1.9417021 -0.4405886 68.8969782 38.5178180 -11.1350625 18.2773347
2.0071936 0.1432765 0.4658549 0.098868 -0.106728 -0.004342 3.7141881 3.5093249 -1.8303913 70.5962215 34.1810453 -22.8654712 17.6282667
1.9937261 0.1047038 0.3892779 0.082750 -0.104797 -0.005769 4.2790296 3.5507349 -3.2425892 69.0184614 29.0922828 -34.1588264 17.7283990
1.9610694 0.0644092 0.3185660 0.065176 -0.097835 -0.006060 3.6249611 2.6490092 -3.8551694 64.5622979 23.5001184 -44.3050748 18.0654135
1.9114227 0.0243044 0.2566275 0.047835 -0.086977 -0.005402 2.1830141 1.3946561 -3.1439982 57.7278712 17.8746865 -52.5441205 19.0333115
1.8477065 -0.0138592 0.2051293 0.031627 -0.072942 -0.004139 0.8837372 0.4811479 -1.7103293 49.6675679 12.4355652 -58.7596537 20.0373140
1.7729611 -0.0487845 0.1645211 0.017668 -0.057455 -0.002653 0.0140993 0.0061180 -0.0371255 41.1301449 7.5548943 -63.0229145 21.4057921
1.6898560 -0.0796976 0.1343349 0.005752 -0.041285 -0.001439 -0.3411144 -0.0965185 1.2640163 32.8973315 3.1900148 -65.6172800 22.5506797
1.6004081 -0.1062570 0.1135779 -0.003832 -0.025643 -0.000640 -0.3922451 -0.0138341 2.1867634 25.2607766 -0.5070908 -66.9734247 23.9294154
1.5058763 -0.1283871 0.1010524 -0.011719 -0.010982 -0.000411 -0.2654696 0.1304812 2.5612255 18.5469602 -3.6658626 -67.4852155 24.9421866
1.4067411 -0.1460914 0.0955808 -0.017818 0.002188 -0.000655 -0.1111260 0.2764676 2.7995484 12.6444878 -6.2897186 -67.4118433 26.1512184
2.0629456 0.1082457 0.5391084 0.088583 -0.121233 -0.002526 10.3896551 7.6194788 -2.4192574 80.5484309 30.3837041 -12.4854035 15.9525991
2.0611375 0.0675640 0.4561464 0.071994 -0.121932 -0.004614 12.1565206 7.3666469 -5.7159825 80.8714820 24.9361864 -25.2495002 15.6584862
2.0371847 0.0251471 0.3770808 0.053791 -0.116849 -0.005605 10.9198514 5.3852798 -7.9788767 77.2119543 19.0319539 -37.2143129 15.9926826
1.9930934 -0.0169204 0.3059571 0.035433 -0.106458 -0.005494 7.7015091 2.9600403 -7.9884912 70.2750009 13.0758142 -47.3848575 16.9345067
1.9321011 -0.0566704 0.2454472 0.018474 -0.091911 -0.004437 4.2051364 1.1278847 -5.9838439 61.1498965 7.3609866 -55.2870269 18.2193710
1.8578763 -0.0926396 0.1966637 0.003839 -0.075046 -0.003024 1.6332837 0.2114051 -3.1718805 51.1288488 2.2997751 -60.7763395 19.7214150
1.7737823 -0.1239848 0.1594464 -0.008183 -0.057100 -0.001732 0.2008612 -0.0116038 -0.5414309 41.1563149 -2.0892053 -64.1593700 21.2592740