# volRat = 0.650000
# viscRat = 5.000000
# alpha = 0.750000
# shRate = 3.175000
# tnum = 5700
# time = 4.772093
VARIABLES = X, Y, Z, U, V, W, F_B0, F_B1, F_B2, F_0, F_1, F_2, T
ZONE N=2562 E=5120 F=FEPOINT ET=TRIANGLE
1.6462835 0.3536911 0.6212299 0.154505 -0.037796 -0.000005 5.2255193 21.7232985 0.0000045 31.3008423 67.5314348 0.0028216 26.4070086
-1.6582811 0.5740470 0.6212299 0.150351 0.026067 -0.000005 -3.7271271 21.2522785 0.0000050 -27.7275700 71.0335357 0.0029732 25.4570444
1.6582811 -0.5740472 0.6212299 -0.150349 -0.026066 0.000005 3.7271413 -21.2523594 0.0000050 27.7263376 -71.0342166 -0.0029856 25.4584774
-1.6462835 -0.3536913 0.6212299 -0.154507 0.037797 0.000005 -5.2255367 -21.7233687 0.0000043 -31.2996183 -67.5321111 -0.0028292 26.4082660
0.9795457 -0.0378294 1.1279758 0.009975 0.033759 -0.001514 -1.9816123 1.7151120 20.5228279 -2.2240895 4.6575748 75.0696714 29.1307223
0.9795457 -0.0378294 0.1144839 0.009971 0.033732 0.001503 -1.9805700 1.7142714 -20.5121216 -2.2180954 4.6856158 -75.0575880 29.1275365
-0.9795457 0.0378294 1.1279758 -0.009973 -0.033729 -0.001525 1.9829803 -1.7163102 20.5370018 2.2208057 -4.6881499 75.0817275 29.1277290
-0.9795457 0.0378293 0.1144839 -0.009977 -0.033756 0.001537 1.9841083 -1.7172922 -20.5487562 2.2268636 -4.6602118 -75.0948415 29.1308737
-0.0476344 0.3484900 0.8413532 0.090904 -0.007024 0.003272 -6.8370086 -72.6295937 -41.9846185 -1.1279867 -8.1281822 0.4950984 32.8380393
0.0476342 -0.3484912 0.8413539 -0.091048 0.004713 0.004822 7.7170075 81.9710679 -47.4017952 1.9606126 17.3556709 -4.9858801 32.7769039
-0.0476343 0.3484907 0.4011061 0.090967 -0.005533 -0.004367 -7.6263136 -81.0071400 46.8447161 -1.8701560 -16.4235316 4.4812604 32.7689213
0.0476343 -0.3484906 0.4011063 -0.090984 0.006210 -0.003722 6.9253678 73.5685370 42.5270424 1.2159537 9.0360608 -0.0058376 32.8463732
1.6693995 0.3464356 0.6719570 0.154743 -0.040314 -0.000011 -4.1291989 -15.8839559 -1.4254500 28.9278229 48.8775420 5.5547522 26.1930229
1.6863941 0.3338017 0.7274209 0.151250 -0.042677 0.000127 -2.9317108 -10.4275107 -2.1363980 31.4320974 51.1089408 13.1158027 25.6644598
1.6944381 0.3159934 0.7854975 0.145439 -0.043765 0.000330 -2.8202364 -9.4290319 -3.1400680 32.1270523 49.3273170 20.5099286 25.4686267
1.6916785 0.2933626 0.8437541 0.136828 -0.043115 0.000524 -2.5443405 -8.1510264 -3.8977140 32.1977168 47.0215448 28.0646079 25.1016509
1.6771968 0.2665090 0.9000689 0.126454 -0.040728 0.000461 -2.2353436 -7.0170016 -4.5167642 31.1362998 43.9056015 35.2942501 25.1256229
1.6508283 0.2363533 0.9524631 0.114303 -0.036389 0.000058 -1.8152524 -5.7323984 -4.7806685 29.2571920 40.3088634 42.0388091 25.0426418
1.6130703 0.2040343 0.9993072 0.101405 -0.030387 -0.000633 -1.3887597 -4.5556077 -4.8062393 26.5199423 36.3656131 48.0033067 25.3331318
1.5649354 0.1707625 1.0394611 0.088068 -0.022899 -0.001542 -0.9821261 -3.4892107 -4.5892754 23.2620828 32.1931623 53.0806335 25.5124202
1.5077624 0.1376678 1.0723306 0.075255 -0.014563 -0.002449 -0.6493344 -2.6530955 -4.3170951 19.5636106 28.0045062 57.1424715 26.0448519
1.4430305 0.1056902 1.0978287 0.062977 -0.005686 -0.003256 -0.3790527 -1.9708978 -3.9611585 15.8337621 23.8503091 60.3022504 26.3662830
1.3722178 0.0755259 1.1162687 0.051856 0.003059 -0.003783 -0.1746617 -1.4469349 -3.6085396 12.1106083 19.9414095 62.7012907 27.0150471
1.2967308 0.0476289 1.1282438 0.041636 0.011318 -0.003959 -0.0251208 -1.0480825 -3.2826610 8.6621454 16.2064220 64.3945072 27.3898635
1.2179314 0.0222500 1.1345151 0.032539 0.018727 -0.003759 0.0868781 -0.7961929 -3.2023920 5.4766805 12.7171344 65.4517988 28.0347603
1.1372411 -0.0005111 1.1359486 0.024251 0.025042 -0.003408 0.1508548 -0.4987130 -2.6752278 2.7255320 9.5415841 66.6153772 28.3574930
1.0568725 -0.0205389 1.1334887 0.016986 0.029949 -0.002631 0.4979235 -0.7961550 -6.1574909 0.3121814 6.3631402 65.6052511 28.9713403
1.7701296 -0.5450124 0.6868861 -0.142443 -0.043667 -0.001288 -2.7009887 8.8672823 -1.1692889 36.8638696 -55.2045381 8.9222090 23.5529938
1.7873485 -0.5255063 0.7549267 -0.136584 -0.047596 -0.001987 -2.5725290 7.4838047 -2.1343216 39.2422836 -53.6654999 18.3435778 23.0893031
1.7918938 -0.4984685 0.8234838 -0.128433 -0.049893 -0.002656 -2.2881990 6.0486278 -2.8081295 40.2122904 -50.3393943 28.0313026 22.6991474
1.7831225 -0.4643209 0.8898996 -0.117817 -0.050096 -0.002897 -1.8762247 4.5994383 -3.1184543 39.6574126 -45.9031073 37.2454086 22.5455632
1.7608122 -0.4242253 0.9515274 -0.105299 -0.047911 -0.002541 -1.4592687 3.3801015 -3.1781888 37.7209926 -40.5472033 45.5325040 22.5574980
1.7255152 -0.3798313 1.0061239 -0.091190 -0.043226 -0.001775 -1.0979892 2.4470865 -3.1162741 34.5205920 -34.6484102 52.4873297 22.8326927
1.6784452 -0.3329945 1.0521566 -0.076305 -0.036274 -0.000763 -0.8152407 1.7807285 -3.0564484 30.4567094 -28.5302454 57.9771090 23.2801808
1.6212208 -0.2854977 1.0889070 -0.061186 -0.027502 0.000221 -0.5875075 1.2834699 -3.0063518 25.8968532 -22.5435648 61.9588317 23.8822578
1.5555867 -0.2388505 1.1163884 -0.046445 -0.017658 0.000919 -0.4000819 0.8971678 -2.9676149 21.2436598 -16.8913286 64.6981688 24.5943828
1.4832003 -0.1942034 1.1351631 -0.032452 -0.007439 0.001196 -0.2386828 0.5743862 -2.8804033 16.7084112 -11.7226609 66.3606131 25.3675388
1.4055080 -0.1523519 1.1461331 -0.019695 0.002371 0.001007 -0.1080588 0.3168457 -2.8201953 12.5469398 -7.0358724 67.2462652 26.1423625
1.3236930 -0.1137974 1.1503743 -0.008227 0.011280 0.000408 -0.0009004 0.1002213 -2.6799804 8.7991427 -2.8825443 67.5749004 26.9063619
1.2386234 -0.0788204 1.1490052 0.001762 0.018936 -0.000493 0.0759826 -0.0665531 -2.3984372 5.5192367 0.7632177 67.7281018 27.6532618
1.1505520 -0.0476222 1.1431101 0.010236 0.025147 -0.001514 0.1469597 -0.2125347 -2.5188714 2.7351263 3.9132388 67.1996626 28.3014720
1.8558166 -0.5126781 0.6931946 -0.134247 -0.060154 -0.001194 -2.5493262 5.7160604 -0.9128068 47.6235979 -53.4078730 10.2225952 21.7071778
1.8718813 -0.4866051 0.7671846 -0.126539 -0.064933 -0.002402 -1.9306752 3.8166752 -1.3326200 50.2258380 -50.2593417 21.0970675 20.9817754
1.8720546 -0.4530853 0.8403173 -0.115874 -0.066910 -0.002932 -1.3049869 2.3217507 -1.3417420 50.6751604 -45.8631727 31.7068996 20.7756836
1.8564345 -0.4129730 0.9095296 -0.103234 -0.066169 -0.002930 -0.7850924 1.2750309 -1.1008306 49.1800872 -40.2539184 41.5338668 20.6279136
1.8256419 -0.3679120 0.9719970 -0.088433 -0.062101 -0.002387 -0.5401118 0.8082799 -0.9982146 45.7163728 -33.9814069 49.9156318 21.0075429
1.7810677 -0.3199379 1.0256032 -0.072959 -0.055156 -0.001380 -0.4604687 0.6373412 -1.1133053 40.9717430 -27.3656670 56.5471830 21.4167770
1.7246513 -0.2710785 1.0691945 -0.057004 -0.045625 -0.000339 -0.4908998 0.6250947 -1.5690048 35.3111988 -20.8884389 61.3291765 22.2772590
1.6585200 -0.2230626 1.1025569 -0.041561 -0.034473 0.000473 -0.4501917 0.5153225 -1.9556395 29.4784246 -14.8201076 64.5686597 23.0396529
1.5846668 -0.1771827 1.1261941 -0.026849 -0.022513 0.000824 -0.3866754 0.3714223 -2.4031276 23.7087624 -9.3002878 66.4386880 24.1018814
1.5047473 -0.1342987 1.1410607 -0.013586 -0.010758 0.000681 -0.2634068 0.1643583 -2.5774082 18.4363643 -4.3705079 67.3705309 24.9369204
1.4199614 -0.0949191 1.1483157 -0.001543 0.000319 0.000054 -0.1421278 -0.0370540 -2.7187620 13.6161329 -0.0977252 67.6082374 26.0188582
1.3309298 -0.0593164 1.1491604 0.008654 0.010030 -0.000920 -0.0255687 -0.2088735 -2.5942815 9.4965311 3.6554927 67.4709044 26.7471353
1.2373765 -0.0276957 1.1447163 0.017474 0.018303 -0.002114 0.0692574 -0.3675392 -2.6571563 5.8271279 6.8540570 66.9979848 27.7508546
1.9371217 -0.4685169 0.6988348 -0.122245 -0.078844 -0.001365 -0.3233502 0.5037446 -0.0992037 59.8473755 -49.1571318 11.6234026 19.5291787
1.9493543 -0.4355208 0.7779656 -0.111831 -0.083573 -0.002220 1.0294604 -1.3957749 0.6152964 62.2065232 -44.8318882 23.6443975 18.9709542
1.9429808 -0.3954955 0.8548119 -0.098745 -0.084760 -0.002629 1.8559930 -2.2167423 1.6687538 61.6945627 -39.0969798 35.2121137 18.7469330
1.9186578 -0.3499621 0.9257662 -0.083588 -0.081894 -0.002204 1.8940191 -1.9984562 2.3430494 58.4671621 -32.5274528 45.3219583 18.9839964
1.8779350 -0.3010708 0.9879146 -0.067370 -0.075283 -0.001291 1.3007438 -1.2016270 2.1378015 53.0969382 -25.4702226 53.5000427 19.5775328
1.8231258 -0.2510887 1.0394614 -0.050779 -0.065272 -0.000217 0.5336230 -0.4190900 1.1551636 46.3288594 -18.5516753 59.4733217 20.4850132
1.7568556 -0.2019785 1.0798047 -0.034623 -0.052912 0.000627 -0.0460919 0.0285534 -0.1326258 39.0658334 -12.0711551 63.4958891 21.5507774
1.6816035 -0.1551912 1.1093105 -0.019433 -0.039228 0.001011 -0.3364032 0.1318208 -1.3205950 31.8566645 -6.2638212 65.8121390 22.7280734
1.5993938 -0.1116565 1.1289565 -0.005651 -0.025368 0.000832 -0.3902800 0.0122562 -2.1953820 25.1458048 -1.1649100 66.9104617 23.9121293
1.5116415 -0.0718938 1.1400128 0.006540 -0.012154 0.000125 -0.3002116 -0.1954836 -2.6539996 19.1530130 3.2157781 67.1592218 25.0414654
1.4190609 -0.0361671 1.1438061 0.017063 -0.000266 -0.000990 -0.1687419 -0.4087249 -2.8882098 13.8843016 6.9887866 66.8805996 26.1335543
1.3215351 -0.0046662 1.1415956 0.025764 0.010119 -0.002354 -0.0358362 -0.5945573 -2.9755437 9.3638702 10.1310973 66.2732212 27.1220473
2.0108043 -0.4109273 0.7039408 -0.104814 -0.098572 -0.001165 5.5165587 -5.8917281 1.4992990 72.7682250 -42.4152849 12.9290791 17.2411634
2.0164414 -0.3711064 0.7871894 -0.091507 -0.102467 -0.001763 7.5056471 -6.7808228 4.0218338 74.1674248 -36.6926783 26.0284099 16.6640746
2.0011371 -0.3253616 0.8664119 -0.075880 -0.101454 -0.001462 7.4755479 -5.6861599 6.0907173 71.7983382 -29.9256690 38.0325466 16.8722598
1.9663267 -0.2758889 0.9376355 -0.059037 -0.095744 -0.000610 5.8257115 -3.6376802 6.5959570 66.3117316 -22.5939992 48.1315434 17.3817831
1.9146035 -0.2251598 0.9981137 -0.041812 -0.085527 0.000506 3.4475422 -1.6552498 5.2349760 58.5940452 -15.3706831 55.7643158 18.5192374
1.8491517 -0.1753708 1.0465930 -0.025272 -0.072219 0.001428 1.4741639 -0.4563005 2.9754844 49.9081948 -8.5916463 60.9939402 19.7064851
1.7730816 -0.1281346 1.0831187 -0.009760 -0.056835 0.001792 0.1917647 -0.0162749 0.5192504 41.0294157 -2.6067145 64.0827889 21.2386321
1.6889699 -0.0844492 1.1086117 0.004036 -0.041005 0.001559 -0.3384819 -0.0826376 -1.2629881 32.7790272 2.6014173 65.6071067 22.5321753
1.5986421 -0.0448325 1.1244260 0.016293 -0.025601 0.000670 -0.4568794 -0.3595115 -2.4736843 25.3211344 6.9721620 66.0315302 24.0335789
1.5031246 -0.0095139 1.1320419 0.026569 -0.011484 -0.000657 -0.3436220 -0.6353110 -2.9827948 18.8985783 10.6502857 65.7996566 25.1736967
1.4026532 0.0213760 1.1328797 0.035103 0.000907 -0.002272 -0.1865353 -0.8895531 -3.2854380 13.3487580 13.6915539 65.1518181 26.4697099
2.0723849 -0.3393265 0.7081818 -0.080977 -0.117564 -0.000687 15.5464608 -10.7470383 3.8597951 84.7442026 -32.6773549 14.0122805 15.0014482
2.0687227 -0.2936883 0.7941614 -0.064949 -0.119246 -0.000494 16.5903544 -9.0846070 8.2192988 84.2085466 -25.8627733 27.6788468 14.8441821
2.0424201 -0.2440743 0.8740828 -0.047457 -0.114996 0.000342 13.9348648 -5.7275003 10.6150832 79.4205049 -18.4922582 39.8231945 15.3769791
1.9959812 -0.1931032 0.9439684 -0.029867 -0.105319 0.001619 9.2399294 -2.4711169 9.8870595 71.3593939 -11.1176192 49.4824056 16.5265890
1.9330208 -0.1431746 1.0015546 -0.013010 -0.091471 0.002616 4.7137196 -0.4737835 6.8377332 61.4125102 -4.1913690 56.3991625 18.0193215
1.8573415 -0.0960511 1.0462744 0.002409 -0.074803 0.003052 1.6242626 0.1831063 3.1673935 51.0040629 1.8608308 60.7462923 19.6918946
1.7722168 -0.0527853 1.0787956 0.016101 -0.057179 0.002722 0.0191857 0.0078694 0.0508268 41.0110534 7.0446184 63.0593789 21.3808331
1.6800552 -0.0138751 1.1004713 0.027871 -0.039676 0.001678 -0.5357833 -0.4631876 -1.9867258 32.0617842 11.2778914 63.9428884 22.9928098
1.5823435 0.0205114 1.1129011 0.037789 -0.023552 0.000108 -0.5608495 -0.9215049 -3.0858887 24.2722118 14.8006815 63.9341713 24.4696485
1.4797372 0.0503332 1.1176774 0.045765 -0.009185 -0.001783 -0.3822286 -1.2424074 -3.5076422 17.6729379 17.6496692 63.4220642 25.8212607
2.1166644 -0.2550591 0.7110662 -0.050616 -0.133107 0.000114 27.1562911 -10.3415872 6.3356511 93.6710545 -20.4045126 14.6403035 13.1894888
2.1015397 -0.2057921 0.7980015 -0.032653 -0.131206 0.001070 24.8179689 -6.0939432 11.6935209 90.5937500 -13.1358390 28.4689887 13.4526649
2.0631365 -0.1551607 0.8768124 -0.014680 -0.122818 0.002531 17.8438553 -1.8685938 13.0770535 83.0893440 -5.8187194 40.2460562 14.6581188
2.0050922 -0.1057061 0.9439271 0.002179 -0.109084 0.003819 10.1362523 0.5733935 10.5554901 72.6888424 1.0328521 49.2585813 16.1868999
1.9317471 -0.0593054 0.9977799 0.017246 -0.091712 0.004447 4.2023943 1.0842609 6.0045684 61.0249549 7.0046352 55.2981818 18.1874608
1.8471139 -0.0170446 1.0384802 0.030260 -0.072697 0.004176 0.8924013 0.4728576 1.7371560 49.5481528 12.0118054 58.8351682 20.0082677
1.7543011 0.0206159 1.0671775 0.041303 -0.053582 0.003010 -0.5192594 -0.4804753 -1.3952860 39.0678512 16.0211706 60.5183145 21.9575367
1.6553800 0.0535861 1.0854999 0.050376 -0.035634 0.001212 -0.7960217 -1.2357433 -3.0580237 29.9748115 19.2637913 61.0310874 23.5339435
1.5514869 0.0819234 1.0951717 0.057593 -0.019505 -0.000975 -0.6554596 -1.7551250 -3.8596126 22.2634845 21.7970727 60.8286557 25.1669677
2.1389176 -0.1620134 0.7121240 -0.015163 -0.142204 0.001054 34.2904583 -3.6152812 7.7193993 97.7872422 -6.8077782 14.7556632 12.2809304
2.1113951 -0.1122830 0.7980527 0.003102 -0.135935 0.002784 26.9468519 0.8613166 12.3985130 92.0223843 0.2984729 28.2451777 13.2174016
2.0612493 -0.0638950 0.8741160 0.019896 -0.123415 0.004458 16.5883960 3.1092176 12.0132074 82.2024017 6.9918073 39.3484748 14.8695692
1.9929208 -0.0187851 0.9374343 0.034437 -0.106323 0.005512 7.7097701 2.9175039 8.0318680 70.1520524 12.8009380 47.4221074 16.8910797
1.9109819 0.0219542 0.9871617 0.046701 -0.086769 0.005431 2.1949877 1.3834892 3.1798872 57.6097807 17.5382025 52.6435524 18.9971616
1.8192553 0.0579127 1.0239345 0.056628 -0.066559 0.004358 -0.3277194 -0.3227289 -0.6569394 45.9268817 21.2267444 55.5732658 21.0450598
1.7204826 0.0890809 1.0492085 0.064644 -0.047261 0.002443 -1.0602654 -1.6109741 -2.9918495 35.5969295 24.0880643 56.9201847 22.9102156
1.6163643 0.1156108 1.0647505 0.070733 -0.029740 0.000085 -0.9770233 -2.3469802 -4.0513725 26.8765871 26.2824434 57.2877411 24.5746301
2.1365317 -0.0662609 0.7111245 0.022239 -0.142854 0.001923 32.1501637 5.0948849 7.1616903 96.5410127 6.8351931 14.4050914 12.5276934
2.0973151 -0.0194025 0.7942303 0.038958 -0.132489 0.004057 21.6043737 6.6596558 9.9544888 88.4411358 13.2765546 27.1583164 13.8940821
2.0371674 0.0239950 0.8663174 0.053052 -0.116777 0.005627 10.9375971 5.3610177 8.0300057 77.0876980 18.8292161 37.2666109 15.9478481
1.9607629 0.0628623 0.9252591 0.064317 -0.097680 0.006084 3.6349472 2.6401175 3.8898015 64.4384397 23.2486828 44.4166323 18.0337272
1.8724468 0.0968421 0.9707841 0.073083 -0.077380 0.005358 -0.1264739 -0.1329669 -0.1910315 52.0218819 26.5728106 48.8803205 20.2841148
1.7756346 0.1259980 1.0038754 0.079763 -0.057438 0.003563 -1.3440331 -2.0500564 -2.8602389 40.8626139 29.0295567 51.4004184 22.1644973
1.6726666 0.1505567 1.0261579 0.084707 -0.039092 0.001162 -1.3875009 -3.1450701 -4.2571498 31.2620877 30.8265394 52.6059414 24.0684065
2.1100903 0.0255444 0.7082032 0.057745 -0.135184 0.002441 22.1444770 9.5532521 5.0003534 90.3113501 19.5312438 13.6411648 13.8532297
2.0612148 0.0670102 0.7870870 0.071497 -0.121903 0.004638 12.1699823 7.3627698 5.7530116 80.7428145 24.7895230 25.3008133 15.6124977
1.9935122 0.1038714 0.8544209 0.082151 -0.104671 0.005801 4.2791635 3.5443574 3.2644680 68.8906867 28.9105747 34.2638412 17.6912027
1.9113966 0.1358255 0.9086968 0.089877 -0.085255 0.005675 -0.1332122 -0.1507103 -0.1502391 56.6169478 31.8682722 40.4700851 19.8230490
1.8187809 0.1629873 0.9500422 0.095432 -0.065591 0.004246 -1.7504995 -2.7372535 -2.8335486 45.1138671 33.9284970 44.4369062 21.8623553
1.7186673 0.1856281 0.9796657 0.099076 -0.046991 0.002028 -1.8464392 -4.0918589 -4.3015620 35.0826445 35.3608917 46.7606825 23.7122005
2.0630251 0.1081234 0.7038004 0.088270 -0.121207 0.002537 10.3837078 7.6198561 2.4326819 80.4163088 30.2751293 12.5204445 15.9103631
2.0070057 0.1430149 0.7775569 0.098506 -0.106621 0.004371 3.6960990 3.4946836 1.8349471 70.4581655 34.0571041 22.9497345 17.5991830
1.9340519 0.1730830 0.8396748 0.105660 -0.089289 0.005025 -0.5652252 -0.6958529 -0.4589133 59.2082629 36.7133813 30.8149871 19.6815226
1.8481442 0.1984808 0.8890765 0.110238 -0.070830 0.004276 -2.2206353 -3.6279586 -2.7068372 48.1441682 38.4870357 36.3042422 21.5562933
1.7528323 0.2194787 0.9261947 0.113016 -0.052874 0.002487 -2.3657105 -5.2700499 -4.2185894 38.0066531 39.5917206 39.8362699 23.4941641
2.0001544 0.1786307 0.6984641 0.112304 -0.103813 0.002311 1.7547736 1.9106022 0.4361607 68.7505075 38.4299354 11.1833922 18.2520433
1.9391461 0.2069899 0.7665713 0.119286 -0.089395 0.003658 -1.4788111 -2.0088703 -0.7884979 59.3721338 40.8904525 20.3294666 19.9654705
1.8625372 0.2309363 0.8231086 0.123677 -0.073162 0.003631 -2.8436005 -4.9426110 -2.5145596 49.3446967 42.4930469 27.2338822 21.7563895
1.7740755 0.2507159 0.8673305 0.125782 -0.056439 0.002416 -2.8644590 -6.5671123 -3.8681427 39.7592664 43.3936455 32.0737223 23.5199103
1.9262074 0.2364869 0.6926582 0.129962 -0.085657 0.001685 -2.5590022 -3.9029945 -0.6891641 57.1379517 44.1235087 9.8808103 20.5433226
1.8615054 0.2591534 0.7547449 0.134273 -0.072183 0.002361 -3.4112818 -6.4250343 -1.9949128 48.8873163 45.6247488 17.8872381 21.9739529
1.7819685 0.2781110 0.8051803 0.136435 -0.057564 0.001916 -3.2789301 -7.9000362 -3.2263264 40.2786204 46.5206442 23.8429734 23.6830609
1.8450068 0.2825933 0.6866474 0.142218 -0.068577 0.001151 -3.8298021 -7.9792871 -1.1374475 46.6114337 48.0203285 8.5854138 22.6999668
1.7768057 0.3008066 0.7420814 0.144582 -0.056428 0.001156 -3.5402816 -9.1424469 -2.3092530 39.4637634 48.8259544 15.4344375 24.0735590
1.7592212 0.3185323 0.6802720 0.149910 -0.053165 0.000186 -3.5558570 -10.0506307 -1.1767840 37.5163702 50.1371026 7.4931757 24.5258068
1.7281321 0.3321836 0.6212299 0.152701 -0.047885 0.000002 -3.6009349 -11.5291058 -0.0000004 34.6286135 51.3065363 0.0012529 25.2455172
1.8122013 0.3017186 0.6212299 0.146978 -0.062216 -0.000005 -3.6811626 -8.7174711 -0.0000003 42.9263606 49.5211157 0.0017458 23.3511586
1.8950456 0.2614144 0.6212299 0.137340 -0.078492 0.000001 -3.4459477 -6.0410327 -0.0000002 52.8043074 46.4493122 0.0004052 21.5015374
1.9729713 0.2097993 0.6212299 0.122759 -0.096533 -0.000000 -0.5809441 -0.7399185 -0.0000000 64.1390362 41.8253197 -0.0000122 19.1321507
2.0422578 0.1456283 0.6212299 0.101946 -0.114759 -0.000001 6.2399316 5.5490271 0.0000001 76.1507303 34.8504095 0.0005197 16.8319216
2.0983242 0.0686477 0.6212299 0.074511 -0.131115 0.000000 17.6891414 10.0593213 0.0000003 87.4763880 25.3229485 -0.0000550 14.4554795
2.1360587 -0.0195030 0.6212299 0.040990 -0.142548 0.000001 30.2561995 8.6979228 0.0000003 95.9439673 13.3932633 -0.0001385 12.7568886
2.1509682 -0.1146497 0.6212299 0.003697 -0.146277 -0.000001 37.5017210 0.9349961 0.0000003 99.8927322 -0.0145456 0.0002236 11.8096776
2.1408220 -0.2104925 0.6212299 -0.033600 -0.141202 0.000001 34.4382050 -8.2171829 0.0000002 98.4449735 -13.8729407 -0.0002738 12.2735948
2.1067280 -0.3002778 0.6212299 -0.067165 -0.128338 0.000001 23.4764551 -12.3065933 0.0000002 91.6960671 -27.1096334 -0.0002040 13.6325894
2.0526955 -0.3788075 0.6212299 -0.094569 -0.110427 -0.000000 11.1048168 -9.5242733 0.0000001 80.7260522 -38.3109236 -0.0000346 15.8458070
1.9840807 -0.4434772 0.6212299 -0.115190 -0.090472 0.000001 2.4869137 -3.1705017 0.0000000 67.7362777 -46.5983871 -0.0004454 18.1117113
1.9060940 -0.4940068 0.6212299 -0.129840 -0.070969 0.000002 -1.6640749 3.0487741 -0.0000000 54.8953127 -51.9865972 -0.0009992 20.4854925
1.8231089 -0.5315551 0.6212299 -0.139598 -0.053237 0.000000 -2.6924325 7.0706732 -0.0000001 43.2712659 -55.0738046 0.0000455 22.3780795
1.7392771 -0.5578231 0.6212299 -0.146166 -0.037649 0.000004 -2.6775064 10.4062039 -0.0000002 33.5652761 -57.0704151 -0.0033362 24.2868589
1.6810360 -0.5678536 0.5642900 -0.147251 -0.029322 0.000592 -2.9021549 14.6551851 1.4930853 27.2355957 -54.1691604 -6.7244689 25.2365669
1.6976030 -0.5541732 0.5025079 -0.143315 -0.032332 0.001235 -2.1447914 9.6161013 2.2370299 29.7272667 -55.5204299 -15.5555746 24.7020409
1.7051113 -0.5330011 0.4385073 -0.136907 -0.034330 0.001878 -2.0347051 8.3008539 3.1522938 30.6584099 -53.1693769 -24.2193055 24.4936707
1.7016820 -0.5046531 0.3752016 -0.128650 -0.035043 0.002135 -1.8086257 6.8812157 3.7853657 30.8208254 -49.7794947 -32.7908682 24.1204863
1.6864149 -0.4698850 0.3150713 -0.117925 -0.033937 0.001999 -1.5254191 5.5551938 4.1730389 29.7824848 -45.3947984 -40.7760757 24.1509336
1.6592059 -0.4299322 0.2603256 -0.105696 -0.030920 0.001420 -1.1777357 4.2247908 4.2011274 27.8337215 -40.3379410 -47.8723861 24.0954106
1.6206306 -0.3863408 0.2126684 -0.092081 -0.025897 0.000520 -0.8621522 3.1520022 4.0892926 24.9967755 -34.8582915 -53.7678919 24.4291252
1.5717668 -0.3407593 0.1731657 -0.077986 -0.019225 -0.000472 -0.5786004 2.2561076 3.8110855 21.6718476 -29.2340352 -58.4469137 24.6817341
1.5139805 -0.2947366 0.1422262 -0.063569 -0.011249 -0.001345 -0.3583055 1.6011982 3.5570880 17.9784527 -23.7486825 -61.9053711 25.3047469
1.4487315 -0.2495865 0.1196873 -0.049729 -0.002737 -0.001879 -0.1828057 1.0861727 3.2522444 14.3299337 -18.5113598 -64.3352826 25.7279581
1.3774379 -0.2063280 0.1049653 -0.036465 0.005821 -0.002010 -0.0537844 0.7259165 3.0702992 10.7566723 -13.6712270 -65.8847228 26.4913251
1.3014162 -0.1656930 0.0972012 -0.024403 0.013806 -0.001720 0.0443764 0.4303881 2.8140676 7.5220639 -9.2614024 -66.8409742 26.9829618
1.2219240 -0.1281794 0.0953875 -0.013506 0.020811 -0.001067 0.1254919 0.2300271 2.8594654 4.6062692 -5.2777513 -67.1636239 27.7427733
1.1402741 -0.0941144 0.0984309 -0.004125 0.026534 -0.000101 0.1443976 0.0368910 2.1546977 2.1446971 -1.7425797 -67.7098694 28.1684163
1.0586052 -0.0639052 0.1051234 0.003963 0.030944 0.000826 0.5243435 -0.2442400 6.1090447 0.0570548 1.3312289 -66.0342657 28.8986654
1.7592212 0.3185323 0.5621877 0.149897 -0.053163 -0.000186 -3.5557966 -10.0504599 1.1767634 37.5207079 50.1369270 -7.4939821 24.5286833
1.7768057 0.3008066 0.5003783 0.144583 -0.056428 -0.001155 -3.5403149 -9.1425328 2.3092742 39.4643394 48.8256477 -15.4335914 24.0714956
1.7819685 0.2781110 0.4372795 0.136432 -0.057565 -0.001917 -3.2788761 -7.8999062 3.2262728 40.2795264 46.5218140 -23.8426105 23.6870403
1.7740755 0.2507159 0.3751293 0.125784 -0.056439 -0.002414 -2.8644878 -6.5671783 3.8681811 39.7589862 43.3930955 -32.0746329 23.5179910
1.7528323 0.2194788 0.3162651 0.113011 -0.052876 -0.002490 -2.3656704 -5.2699607 4.2185176 38.0085643 39.5934198 -39.8348643 23.4974329
1.7186673 0.1856281 0.2627940 0.099079 -0.046991 -0.002026 -1.8464471 -4.0918765 4.3015801 35.0817166 35.3600203 -46.7622258 23.7106827
1.6726666 0.1505568 0.2163018 0.084703 -0.039095 -0.001164 -1.3874807 -3.1450242 4.2570875 31.2634690 30.8288491 -52.6047795 24.0730378
1.6163643 0.1156108 0.1777092 0.070730 -0.029738 -0.000084 -0.9770125 -2.3469543 4.0513275 26.8775104 26.2800618 -57.2895433 24.5714739
1.5514869 0.0819234 0.1472880 0.057591 -0.019509 0.000974 -0.6554465 -1.7550899 3.8595350 22.2645046 21.8008047 -60.8275216 25.1728864
1.4797372 0.0503332 0.1247823 0.045764 -0.009177 0.001786 -0.3822244 -1.2423939 3.5076038 17.6731075 17.6437993 -63.4247425 25.8197947
1.4026532 0.0213760 0.1095800 0.035098 0.000904 0.002272 -0.1865177 -0.8894688 3.2851265 13.3522995 13.6957102 -65.1513370 26.4735838
1.3215351 -0.0046662 0.1008641 0.025766 0.010127 0.002357 -0.0358293 -0.5944435 2.9749743 9.3623541 10.1232164 -66.2759495 27.1223452
1.2373765 -0.0276957 0.0977434 0.017476 0.018308 0.002112 0.0693440 -0.3679986 2.6604775 5.8284403 6.8532650 -66.9949766 27.7570041
1.1505520 -0.0476222 0.0993497 0.010234 0.025169 0.001511 0.1471957 -0.2128766 2.5229172 2.7366000 3.8990604 -67.1974101 28.2984632
1.8450068 0.2825933 0.5558123 0.142227 -0.068577 -0.001143 -3.8298590 -7.9794056 1.1374640 46.6079995 48.0202234 -8.5887657 22.6978967
1.8615054 0.2591534 0.4877149 0.134271 -0.072183 -0.002364 -3.4112592 -6.4249918 1.9948992 48.8877862 45.6251662 -17.8853618 21.9748594
1.8625372 0.2309363 0.4193512 0.123679 -0.073159 -0.003627 -2.8436516 -4.9427000 2.5146046 49.3436996 42.4916040 -27.2353957 21.7532381
1.8481442 0.1984808 0.3533832 0.110238 -0.070831 -0.004278 -2.2206172 -3.6279292 2.7068150 48.1439411 38.4880661 -36.3028353 21.5579081
1.8187809 0.1629873 0.2924175 0.095435 -0.065586 -0.004241 -1.7505401 -2.7373171 2.8336142 45.1125783 33.9262614 -44.4385245 21.8593143
1.7756346 0.1259981 0.2385844 0.079762 -0.057440 -0.003566 -1.3440292 -2.0500505 2.8602305 40.8633502 29.0311387 -51.3985184 22.1651341
1.7204826 0.0890809 0.1932512 0.064650 -0.047256 -0.002440 -1.0602966 -1.6110216 2.9919374 35.5947475 24.0855863 -56.9213952 22.9070310
1.6553800 0.0535861 0.1569598 0.050379 -0.035637 -0.001214 -0.7960276 -1.2357525 3.0580463 29.9744377 19.2664298 -61.0295728 23.5355627
1.5823435 0.0205114 0.1295586 0.037791 -0.023546 -0.000108 -0.5608758 -0.9215481 3.0860333 24.2711343 14.7980236 -63.9343637 24.4638848
1.5031246 -0.0095139 0.1104178 0.026573 -0.011493 0.000655 -0.3436241 -0.6353149 2.9828131 18.8974208 10.6565298 -65.7980870 25.1757421
1.4190609 -0.0361671 0.0986536 0.017066 -0.000259 0.000990 -0.1687578 -0.4087634 2.8884813 13.8821008 6.9851670 -66.8802775 26.1286245
1.3309298 -0.0593164 0.0932993 0.008652 0.010015 0.000918 -0.0255719 -0.2088991 2.5945995 9.4983421 3.6663242 -67.4698131 26.7460265
1.2386234 -0.0788204 0.0934545 0.001762 0.018934 0.000493 0.0759159 -0.0664948 2.3963340 5.5174833 0.7659576 -67.7293128 27.6486030
1.9262074 0.2364869 0.5498015 0.129956 -0.085656 -0.001687 -2.5589417 -3.9029023 0.6891476 57.1403643 44.1233848 -9.8801614 20.5452749
1.9391461 0.2069899 0.4758884 0.119289 -0.089396 -0.003656 -1.4788325 -2.0088993 0.7885092 59.3714041 40.8906506 -20.3299961 19.9649462
1.9340519 0.1730830 0.4027849 0.105656 -0.089290 -0.005026 -0.5651631 -0.6957765 0.4588629 59.2095400 36.7140541 -30.8147266 19.6842233
1.9113966 0.1358255 0.3337629 0.089877 -0.085255 -0.005674 -0.1332325 -0.1507333 0.1502620 56.6172107 31.8679597 -40.4701808 19.8214894
1.8724468 0.0968421 0.2716756 0.073081 -0.077382 -0.005359 -0.1264201 -0.1329104 0.1909502 52.0227669 26.5742377 -48.8801431 20.2875966
1.8192553 0.0579127 0.2185252 0.056629 -0.066558 -0.004356 -0.3277274 -0.3227368 0.6569555 45.9266354 21.2256201 -55.5740865 21.0441573
1.7543011 0.0206159 0.1752822 0.041297 -0.053583 -0.003011 -0.5192142 -0.4804335 1.3951645 39.0705369 16.0226401 -60.5178856 21.9603864
1.6800552 -0.0138751 0.1419884 0.027873 -0.039674 -0.001677 -0.5357821 -0.4631866 1.9867212 32.0611214 11.2758250 -63.9437919 22.9926139
1.5986421 -0.0448325 0.1180337 0.016289 -0.025598 -0.000669 -0.4568452 -0.3594847 2.4734993 25.3233287 6.9721127 -66.0320156 24.0383923
1.5116415 -0.0718938 0.1024469 0.006538 -0.012149 -0.000124 -0.3002120 -0.1954839 2.6540033 19.1535775 3.2115143 -67.1596578 25.0398014
1.4199614 -0.0949191 0.0941440 -0.001543 0.000322 -0.000053 -0.1421131 -0.0370501 2.7184792 13.6178183 -0.0982588 -67.6088814 26.0248458
1.3236930 -0.1137974 0.0920854 -0.008221 0.011295 -0.000409 -0.0009004 0.1002188 2.6799118 8.7962786 -2.8938154 -67.5743834 26.9076658
2.0001545 0.1786307 0.5439957 0.112307 -0.103813 -0.002307 1.7547096 1.9105326 -0.4361447 68.7488917 38.4298437 -11.1842750 18.2502673
2.0070057 0.1430149 0.4649029 0.098504 -0.106620 -0.004374 3.6961127 3.4946966 -1.8349538 70.4588507 34.0570133 -22.9485456 17.5993026
1.9935122 0.1038714 0.3880389 0.082155 -0.104670 -0.005798 4.2791008 3.5443055 -3.2644200 68.8890786 28.9099381 -34.2647578 17.6892765
1.9607629 0.0628623 0.3172006 0.064317 -0.097680 -0.006084 3.6349600 2.6401269 -3.8898150 64.4385668 23.2489938 -44.4161735 18.0345044
1.9109819 0.0219542 0.2552980 0.046704 -0.086766 -0.005430 2.1949267 1.3834508 -3.1797987 57.6088634 17.5370102 -52.6434713 18.9938978
1.8471139 -0.0170446 0.2039795 0.030262 -0.072699 -0.004176 0.8924081 0.4728612 -1.7371690 49.5477088 12.0132079 -58.8349081 20.0093399
1.7722168 -0.0527853 0.1636641 0.016106 -0.057175 -0.002721 0.0191311 0.0078470 -0.0506822 41.0087976 7.0433090 -63.0593035 21.3776099
1.6889699 -0.0844492 0.1338480 0.004034 -0.041010 -0.001560 -0.3384790 -0.0826369 1.2629772 32.7798711 2.6046632 -65.6067202 22.5315885
1.5993938 -0.1116565 0.1135032 -0.005645 -0.025367 -0.000833 -0.3903169 0.0122574 2.1955897 25.1431340 -1.1643821 -66.9098069 23.9082282
1.5047472 -0.1342987 0.1013990 -0.013586 -0.010764 -0.000680 -0.2634022 0.1643555 2.5773634 18.4362243 -4.3660788 -67.3712219 24.9376304
1.4055080 -0.1523519 0.0963267 -0.019695 0.002367 -0.001009 -0.1080692 0.3168761 2.8204657 12.5467380 -7.0319156 -67.2457303 26.1350216
2.0630251 0.1081234 0.5386593 0.088268 -0.121207 -0.002536 10.3837752 7.6199055 -2.4326973 80.4173911 30.2751541 -12.5209733 15.9121609
2.0612148 0.0670102 0.4553728 0.071498 -0.121905 -0.004636 12.1699711 7.3627632 -5.7530058 80.7425113 24.7898013 -25.3010034 15.6123038
2.0371674 0.0239950 0.3761423 0.053048 -0.116777 -0.005629 10.9376673 5.3610522 -8.0300569 77.0892880 18.8293950 -37.2661175 15.9495466
1.9929208 -0.0187851 0.3050255 0.034439 -0.106324 -0.005511 7.7097571 2.9174992 -8.0318542 70.1515229 12.8011245 -47.4225542 16.8909376
1.9317471 -0.0593054 0.2446799 0.017242 -0.091711 -0.004448 4.2024602 1.0842780 -6.0046624 61.0264194 7.0047283 -55.2983460 18.1902345
1.8573415 -0.0960510 0.1961853 0.002407 -0.074803 -0.003053 1.6242597 0.1831060 -3.1673877 51.0045941 1.8602252 -60.7461101 19.6910435
1.7730816 -0.1281346 0.1593410 -0.009764 -0.056833 -0.001792 0.1918183 -0.0162794 -0.5193956 41.0312173 -2.6072411 -64.0831109 21.2424397