# volRat = 0.650000
# viscRat = 5.000000
# alpha = 0.500000
# shRate = 3.889000
# tnum = 9600
# time = 7.923424
VARIABLES = X, Y, Z, U, V, W, F_B0, F_B1, F_B2, F_0, F_1, F_2, T
ZONE N=2562 E=5120 F=FEPOINT ET=TRIANGLE
1.5935325 0.2139303 0.6212299 0.369654 -0.104681 0.000000 3.1556672 11.4184475 0.0000019 29.6060784 54.3785052 0.0000000 27.3924087
-1.6647911 0.7257233 0.6212299 0.375291 0.057054 0.000000 -2.4337769 15.4811978 0.0000039 -27.0142233 66.1434774 0.0000032 24.4045291
1.6647911 -0.7257233 0.6212299 -0.375291 -0.057054 0.000000 2.4337770 -15.4811993 0.0000039 27.0142231 -66.1434796 0.0000034 24.4045302
-1.5935325 -0.2139303 0.6212299 -0.369654 0.104681 0.000000 -3.1556670 -11.4184469 0.0000019 -29.6060770 -54.3785047 0.0000018 27.3924082
0.9690513 -0.1303977 1.1276218 0.040965 0.079615 0.010497 0.3541777 -0.4361337 -4.0712330 0.3378795 2.5827537 50.7227506 29.1556987
0.9690513 -0.1303977 0.1148379 0.040965 0.079615 -0.010498 0.3542173 -0.4361901 4.0717096 0.3379195 2.5827208 -50.7222974 29.1557064
-0.9690513 0.1303977 1.1276218 -0.040965 -0.079615 0.010497 -0.3541725 0.4361272 -4.0711730 -0.3378663 -2.5827496 50.7228083 29.1556943
-0.9690513 0.1303977 0.1148379 -0.040965 -0.079615 -0.010497 -0.3542067 0.4361771 4.0715884 -0.3379010 -2.5827266 -50.7224132 29.1557023
-0.0991527 0.3666761 0.8447974 0.220734 -0.061237 0.005389 -10.3030610 -45.8662224 -27.4767062 2.5482984 15.5182500 14.2369460 32.6777228
0.0991527 -0.3666761 0.8447974 -0.220734 0.061237 0.005389 10.3030845 45.8662916 -27.4765565 -2.5482781 -15.5182019 14.2370785 32.6777265
-0.0991527 0.3666761 0.3976623 0.220734 -0.061238 -0.005388 -10.3028137 -45.8650782 27.4759216 2.5485443 15.5193753 -14.2376828 32.6777241
0.0991527 -0.3666761 0.3976623 -0.220734 0.061238 -0.005388 10.3027898 45.8649600 27.4758746 -2.5485696 -15.5195001 -14.2377475 32.6777198
1.6170832 0.2058837 0.6697536 0.368985 -0.108286 -0.000783 -3.7837687 -12.9332385 -1.0959171 29.8237926 48.4985554 5.3073987 27.1988894
1.6350208 0.1932281 0.7228290 0.361951 -0.112670 -0.001270 -3.3193154 -10.6910844 -2.0619101 31.3299695 47.8186791 11.9639818 26.6621080
1.6446535 0.1762074 0.7785632 0.350085 -0.114329 -0.001506 -3.1948223 -9.8009659 -3.0629234 31.9634537 46.3510844 18.7395794 26.4472570
1.6441631 0.1551477 0.8347863 0.332894 -0.112360 -0.001673 -2.9492395 -8.7351098 -3.9069212 32.0551231 44.3758607 25.6911105 26.0352241
1.6325720 0.1305435 0.8896060 0.311444 -0.106528 -0.002196 -2.6248587 -7.6310706 -4.5787337 31.2142575 41.8645553 32.5574042 26.0011059
1.6095691 0.1031554 0.9411968 0.286094 -0.096469 -0.003223 -2.1937137 -6.3863838 -4.9469649 29.6412274 38.8688157 39.1094355 25.8328755
1.5754536 0.0739549 0.9879723 0.258415 -0.082498 -0.004768 -1.7302774 -5.1693274 -5.0461052 27.2432430 35.5242375 45.1393261 26.0287884
1.5310354 0.0440195 1.0287242 0.229296 -0.065050 -0.006647 -1.2680228 -4.0115667 -4.8612271 24.3050915 31.8893108 50.4942943 26.1124428
1.4774870 0.0144068 1.0627079 0.200321 -0.045147 -0.008502 -0.8720054 -3.0500374 -4.5502905 20.8459241 28.1216499 55.0228213 26.5347013
1.4161815 -0.0139514 1.0896476 0.172068 -0.023751 -0.010034 -0.5468848 -2.2599213 -4.1401719 17.2349981 24.2663945 58.6924988 26.7664259
1.3485551 -0.0403166 1.1096730 0.145561 -0.002157 -0.011023 -0.3000661 -1.6551225 -3.7352064 13.5063261 20.4946920 61.5843528 27.3235011
1.2760224 -0.0641664 1.1232260 0.120865 0.018688 -0.010950 -0.1209064 -1.2230195 -3.4329693 9.9612394 16.7923142 63.6372769 27.6218660
1.1999839 -0.0851832 1.1309610 0.098327 0.037855 -0.010004 0.0136635 -0.9642952 -3.4284558 6.5952811 13.2356136 64.9507447 28.1916848
1.1219086 -0.1032302 1.1336767 0.077737 0.054128 -0.010206 0.0897694 -0.5113418 -2.3742160 3.5947334 10.1530019 66.9245591 28.4700365
1.0440318 -0.1182490 1.1322721 0.059270 0.067490 -0.008578 0.1645831 -0.3812156 -2.4568005 0.7051070 7.3151639 69.2579533 29.0164690
1.7770058 -0.6973664 0.6894065 -0.354819 -0.108932 -0.003288 -2.1009236 6.8583348 -0.9654504 39.4351700 -57.7012233 9.7345004 22.3332303
1.7937454 -0.6764299 0.7598954 -0.338150 -0.120426 -0.006020 -2.0059370 5.7018279 -1.7440606 41.9360618 -55.2155338 19.8238166 21.8503394
1.7972065 -0.6469938 0.8305248 -0.314339 -0.127064 -0.008191 -1.6161476 4.1165968 -2.0619376 42.9344041 -51.2612220 30.1186757 21.4754827
1.7867745 -0.6096937 0.8983435 -0.283657 -0.127721 -0.009010 -1.2012895 2.8023849 -2.0656978 42.1377953 -46.0912975 39.6510377 21.3898632
1.7623867 -0.5659744 0.9605312 -0.247883 -0.121803 -0.008220 -0.8950194 1.9474692 -2.0111512 39.7705812 -39.9935366 47.9166907 21.5055116
1.7248313 -0.5177611 1.0148471 -0.208564 -0.109274 -0.006242 -0.6808609 1.4036878 -1.9905410 36.1044882 -33.5419924 54.6227932 21.9263945
1.6755535 -0.4670998 1.0599208 -0.168163 -0.091050 -0.003584 -0.5581950 1.1047378 -2.1525571 31.5990068 -27.0368611 59.6594223 22.5261794
1.6163370 -0.4158434 1.0952860 -0.128360 -0.068698 -0.001066 -0.4453558 0.8545858 -2.3374415 26.7022780 -20.9075765 63.1699103 23.2921828
1.5489998 -0.3654622 1.1212141 -0.090709 -0.044187 0.000729 -0.3393954 0.6346004 -2.5637762 21.8158204 -15.2414778 65.4211528 24.1455198
1.4751932 -0.3169977 1.1384745 -0.056024 -0.019326 0.001462 -0.2187932 0.3961764 -2.6375389 17.1610984 -10.2029246 66.7343410 25.0586618
1.3963077 -0.2711076 1.1480994 -0.025070 0.004173 0.001095 -0.1101321 0.1829817 -2.6831821 12.9621064 -5.7226793 67.3687638 25.9346972
1.3134522 -0.2281586 1.1512230 0.002049 0.025164 -0.000279 -0.0150070 -0.0051689 -2.5760840 9.2342334 -1.8138727 67.5846222 26.7959630
1.2274289 -0.1883136 1.1489680 0.025205 0.042888 -0.002378 0.0587457 -0.1574773 -2.5172483 6.0121959 1.5730146 67.4921206 27.6100073
1.1384625 -0.1516576 1.1423970 0.044429 0.057060 -0.004521 0.1365027 -0.3325812 -2.8982634 3.3158647 4.4640237 66.8141734 28.3252784
1.8626263 -0.6639919 0.6958682 -0.331291 -0.155785 -0.003659 -1.3586633 2.8936244 -0.4985134 51.4980205 -54.7479612 11.0547942 20.3222571
1.8776774 -0.6357884 0.7722867 -0.308521 -0.168837 -0.007044 -0.4554119 0.8432017 -0.3198636 54.1986839 -50.8686148 22.6530353 19.5942361
1.8760668 -0.5993189 0.8472270 -0.277842 -0.174080 -0.008866 0.2283516 -0.3753779 0.2378873 54.3706561 -45.6651940 33.7151664 19.4457327
1.8580419 -0.5557546 0.9173462 -0.241248 -0.171190 -0.008979 0.5413759 -0.7999038 0.7670052 52.2981103 -39.2724161 43.6151323 19.4217930
1.8245176 -0.5070734 0.9797441 -0.200165 -0.159600 -0.007515 0.4241875 -0.5660348 0.7903642 48.1539128 -32.4092735 51.7675360 19.9729286
1.7772103 -0.4555532 1.0324485 -0.157901 -0.140538 -0.004937 0.1088262 -0.1304701 0.2645414 42.7339741 -25.4014396 57.9014482 20.5752612
1.7183118 -0.4033147 1.0745937 -0.115955 -0.115540 -0.002310 -0.1954943 0.2058997 -0.6253333 36.5932877 -18.8338756 62.1881790 21.6346743
1.6500760 -0.3520386 1.1062840 -0.076515 -0.087180 -0.000320 -0.3405574 0.2966625 -1.4675871 30.3989999 -12.8015001 64.8953179 22.5785328
1.5745070 -0.3028783 1.1282867 -0.040300 -0.057663 0.000532 -0.3601319 0.2172867 -2.1814009 24.4570943 -7.4795197 66.4110272 23.7983363
1.4931962 -0.2565174 1.1417252 -0.008240 -0.029151 0.000167 -0.2740616 0.0363959 -2.5149518 19.1168070 -2.8126219 67.1050248 24.7585779
1.4072514 -0.2132864 1.1478361 0.019843 -0.002927 -0.001305 -0.1691299 -0.1576700 -2.7340884 14.3114774 1.1717693 67.2431688 25.9519955
1.3172111 -0.1732884 1.1478294 0.043425 0.019856 -0.003576 -0.0601174 -0.3204602 -2.6821318 10.2396401 4.6398230 67.0690052 26.7556546
1.2227632 -0.1365447 1.1427981 0.062959 0.038939 -0.006452 0.0275237 -0.4548199 -2.6400192 6.6590275 7.5995741 66.7730933 27.8215258
1.9429805 -0.6172149 0.7014860 -0.295842 -0.207116 -0.004001 2.4359920 -3.4856907 0.7521270 64.7730638 -49.1919841 12.4345892 17.9948551
1.9533971 -0.5815164 0.7827834 -0.265589 -0.219245 -0.006744 4.0871246 -5.0125580 2.4492349 66.8376190 -43.9976709 24.9877145 17.4816328
1.9443617 -0.5382690 0.8609114 -0.228151 -0.220991 -0.007820 4.6082491 -4.8868118 4.1442875 65.6097400 -37.4664427 36.7024873 17.3865422
1.9168613 -0.4893768 0.9320714 -0.185848 -0.211746 -0.006834 3.9069314 -3.5665973 4.8246824 61.4863564 -30.3314179 46.5857958 17.8293186
1.8728742 -0.4372818 0.9934395 -0.141725 -0.192668 -0.004515 2.4757749 -1.9010143 4.0516654 55.2297868 -22.9574066 54.2672543 18.6613173
1.8150774 -0.3843642 1.0435263 -0.098104 -0.165606 -0.001903 1.0905007 -0.6636887 2.3407745 47.8024805 -16.0174612 59.6968839 19.8120298
1.7462965 -0.3325241 1.0821090 -0.057156 -0.133550 0.000135 0.1393454 -0.0575306 0.3945618 40.1065830 -9.6916274 63.1915249 21.0907288
1.6690459 -0.2830376 1.1098803 -0.019979 -0.099354 0.000973 -0.3134676 0.0453571 -1.1940606 32.6936882 -4.1639946 65.1593731 22.4533525
1.5852761 -0.2366187 1.1280323 0.012828 -0.065587 0.000442 -0.4256769 -0.1125866 -2.2625837 25.9246260 0.5978728 66.0696985 23.7800487
1.4962857 -0.1935743 1.1379358 0.041060 -0.034086 -0.001317 -0.3521708 -0.3429362 -2.7859580 19.9776491 4.6393912 66.2897675 25.0255251
1.4026820 -0.1539707 1.1409327 0.064784 -0.006076 -0.003960 -0.2262437 -0.5597088 -3.0205265 14.7980829 8.0876839 66.0949421 26.1920712
1.3042875 -0.1177992 1.1382467 0.083920 0.017957 -0.007074 -0.0983420 -0.7346874 -3.0866671 10.3836556 10.9536516 65.6662454 27.2527726
2.0141430 -0.5556650 0.7063167 -0.245123 -0.259033 -0.003416 10.4688402 -9.9181147 2.8373903 77.7110470 -40.7002650 13.5077331 15.6285887
2.0169477 -0.5129271 0.7911656 -0.207294 -0.267396 -0.005122 12.2127729 -9.5599499 6.5133277 78.2598486 -34.2255848 26.7470564 15.1811482
1.9980912 -0.4641744 0.8708855 -0.163924 -0.262238 -0.004654 11.0109521 -7.0058851 8.9151256 74.8413757 -27.0108173 38.5205181 15.6180608
1.9595286 -0.4119338 0.9414970 -0.118415 -0.244573 -0.002596 7.8657298 -3.8693914 8.8323241 68.3224519 -19.5148847 48.0931344 16.4128284
1.9043428 -0.3588024 1.0005458 -0.073616 -0.216307 0.000031 4.3144667 -1.4430209 6.4751248 59.8356221 -12.4031436 55.1305601 17.8359416
1.8360109 -0.3068902 1.0472076 -0.031945 -0.181205 0.002103 1.6822156 -0.2442977 3.3350209 50.6931781 -5.9202307 59.8265987 19.2765043
1.7577114 -0.2575929 1.0819202 0.005553 -0.142591 0.002822 0.1392067 0.0143121 0.3660977 41.6576815 -0.3218861 62.5850446 21.0175103
1.6719346 -0.2116518 1.1058696 0.038092 -0.103844 0.002037 -0.4540587 -0.2065927 -1.6127934 33.4354595 4.4638442 63.9784738 22.4671898
1.5803572 -0.1693449 1.1205370 0.065938 -0.067134 -0.000196 -0.5674614 -0.5670268 -2.8184072 26.1208279 8.4506253 64.4762113 24.0886244
1.4838635 -0.1306912 1.1274243 0.088874 -0.034037 -0.003412 -0.4404705 -0.8542845 -3.2549616 19.8687682 11.7910876 64.4433513 25.3154546
1.3825947 -0.0956286 1.1279098 0.107229 -0.005305 -0.007170 -0.2793840 -1.0884240 -3.4666489 14.4989801 14.5401761 64.0991736 26.6717060
2.0709996 -0.4794634 0.7099571 -0.177504 -0.305487 -0.002057 22.0325044 -12.7911611 5.4318034 88.2952184 -29.4247276 14.1383504 13.4866721
2.0635023 -0.4312713 0.7966679 -0.133519 -0.306489 -0.001962 21.5694341 -9.4107204 10.5994687 86.5222874 -22.3194898 27.4918038 13.5759189
2.0330495 -0.3794314 0.8761461 -0.087118 -0.291977 0.000021 16.6545975 -4.9161289 12.5655069 80.5490634 -14.9702475 38.9857178 14.4239441
1.9827551 -0.3266870 0.9446533 -0.041866 -0.264293 0.002821 10.1526854 -1.4509840 10.7308261 71.6976023 -7.8916147 47.9477641 15.9009863
1.9166287 -0.2753172 1.0003804 -0.000115 -0.227385 0.004992 4.6713699 0.1711317 6.6596335 61.3753873 -1.4252710 54.2759767 17.6735155
1.8385796 -0.2268180 1.0432139 0.036691 -0.185363 0.005735 1.2750361 0.3380184 2.4213493 50.9375255 4.1237754 58.2545776 19.5670995
1.7517805 -0.1819451 1.0741410 0.068312 -0.142315 0.004664 -0.3009838 -0.1732608 -0.7641612 41.1943999 8.8182930 60.5176555 21.4142730
1.6584500 -0.1409349 1.0946712 0.094736 -0.100897 0.001963 -0.7705637 -0.7903102 -2.6624253 32.5656141 12.6463360 61.5735803 23.1484817
1.5598899 -0.1037446 1.1064348 0.116315 -0.063201 -0.001887 -0.7285926 -1.2593587 -3.5485485 25.1156889 15.8237064 61.8998027 24.6960118
1.4566209 -0.0702384 1.1109750 0.133187 -0.030136 -0.006369 -0.5183756 -1.5298701 -3.7927875 18.8240818 18.4114068 61.8137959 26.1019255
2.1081527 -0.3911354 0.7119118 -0.094907 -0.338975 0.000002 32.2820793 -8.9679370 7.4656734 94.4540276 -16.5283598 14.2015744 12.0174307
2.0885875 -0.3402790 0.7985173 -0.048192 -0.329818 0.002104 27.2001784 -3.8215161 12.6913512 90.1054661 -9.5123352 27.2107874 12.6160819
2.0460488 -0.2885771 0.8759778 -0.002973 -0.304878 0.005214 17.9624134 0.1089814 13.0091891 81.8313909 -2.6776840 38.0956450 14.1687860
1.9846636 -0.2384085 0.9411714 0.037961 -0.268134 0.007866 9.1926149 1.6209112 9.4216161 71.2079495 3.5784420 46.3321677 15.9861739
1.9089211 -0.1913323 0.9930352 0.073305 -0.224432 0.008896 3.1596141 1.2275477 4.4098344 59.8000599 8.9548805 51.9338372 18.2105589
1.8227146 -0.1480992 1.0320526 0.102917 -0.178380 0.007821 0.1309668 0.0875782 0.2457470 48.8503081 13.4379697 55.3970128 20.1810542
1.7289170 -0.1088945 1.0595654 0.127191 -0.133418 0.004800 -0.9857352 -1.0433341 -2.4959060 39.0068949 17.0596690 57.3284713 22.2351862
1.6293645 -0.0736049 1.0772436 0.146552 -0.091930 0.000408 -1.0821648 -1.7655126 -3.7663469 30.4988268 20.0160618 58.2694275 23.8726937
1.5250177 -0.0420208 1.0867593 0.161446 -0.055146 -0.004757 -0.8551883 -2.1694832 -4.2448806 23.2781365 22.3556634 58.6291957 25.5548972
2.1215028 -0.2958332 0.7118278 -0.003613 -0.353072 0.002265 34.7328654 -0.2189064 7.7442711 95.3615993 -3.5147134 13.7957638 11.6869651
2.0896608 -0.2457617 0.7963802 0.041126 -0.333238 0.005938 25.0229073 3.3689564 11.3859762 88.7568914 2.9518160 26.1191552 12.9692156
2.0360921 -0.1973794 0.8704047 0.080876 -0.299423 0.009372 13.8571005 4.1091150 9.8912538 78.8219273 8.9343915 36.1583350 14.8977829
1.9654261 -0.1522580 0.9315589 0.114252 -0.256555 0.011172 5.4092655 2.6795492 5.5191794 67.3199556 14.0931293 43.5625309 17.1195959
1.8821010 -0.1111242 0.9794284 0.141416 -0.209660 0.010528 0.6911817 0.5203194 0.9697240 55.6726640 18.3170620 48.5589952 19.3471683
1.7896553 -0.0741066 1.0148860 0.162814 -0.162728 0.007638 -1.1915358 -1.3121082 -2.2693907 44.9677199 21.6596895 51.6551651 21.4741748
1.6905428 -0.0410259 1.0394507 0.179499 -0.118726 0.002980 -1.5359179 -2.4475634 -3.9876113 35.5485838 24.3221448 53.4760385 23.3791008
1.5862441 -0.0116071 1.0548381 0.191809 -0.079249 -0.002626 -1.2711746 -2.9569974 -4.5880041 27.5766215 26.4298629 54.4749717 25.0659724
2.1098236 -0.2002712 0.7096929 0.087001 -0.345658 0.004133 27.4353137 7.0630399 6.0458060 91.3755638 8.6717875 13.0475541 12.5785301
2.0671228 -0.1540765 0.7905935 0.125515 -0.317385 0.008523 16.4986240 6.7905364 7.4999208 83.1200882 14.2869549 24.4174807 14.1907136
2.0047034 -0.1112489 0.8602558 0.156949 -0.278182 0.011473 6.9138577 4.1417435 4.9805630 72.4549598 19.1285374 33.4710464 16.4143562
1.9271055 -0.0724733 0.9170459 0.181398 -0.233005 0.011908 1.0665791 0.8945008 1.1090171 60.9909831 23.0499277 40.0696860 18.5846757
1.8383509 -0.0378250 0.9609908 0.199924 -0.186452 0.009702 -1.5248755 -1.7644331 -2.2011459 49.9601586 26.1389992 44.5538609 20.8843368
1.7415130 -0.0070700 0.9931733 0.213584 -0.141653 0.005278 -2.0585803 -3.2840664 -4.0732742 40.0813425 28.5510736 47.4957300 22.7706883
1.6386659 0.0201116 1.0151798 0.223227 -0.100855 -0.000424 -1.7865427 -3.9693507 -4.8689169 31.5242808 30.4241073 49.3344578 24.6826407
2.0751798 -0.1107063 0.7058600 0.168091 -0.320189 0.005070 15.1670282 8.0773459 3.3785022 83.5094176 19.4513966 12.0524862 14.4226739
2.0240014 -0.0702911 0.7820288 0.198069 -0.287305 0.009319 6.6580847 4.7244133 3.0901613 74.5846151 23.9429426 22.3011299 16.3192223
1.9551915 -0.0339099 0.8468253 0.220605 -0.246816 0.011211 0.7608340 0.7107859 0.5649317 64.0857461 27.6001436 30.3564364 18.4485328
1.8728274 -0.0015882 0.8991189 0.236609 -0.202931 0.010252 -2.0464873 -2.5163812 -2.2134937 53.4580285 30.4160057 36.2682116 20.5900567
1.7804376 0.0269426 0.9392011 0.247670 -0.159407 0.006658 -2.7034038 -4.4045972 -4.0960942 43.5302802 32.5842800 40.4282737 22.6129200
1.6807097 0.0520204 0.9682747 0.254629 -0.118742 0.001367 -2.3620274 -5.1622889 -4.9513350 34.7838594 34.2351916 43.2340818 24.4443155
2.0218572 -0.0312810 0.7008845 0.234323 -0.283414 0.005050 4.3573730 3.6441688 1.0011395 73.4036372 28.2835862 10.8882130 16.8015226
1.9646262 0.0028122 0.7717247 0.255671 -0.249695 0.008355 -0.3350747 -0.3507949 -0.1618618 64.7044916 31.6020329 20.0425415 18.5166281
1.8914273 0.0330013 0.8313866 0.270191 -0.210961 0.009010 -2.8327015 -3.7473326 -2.2079461 55.1539459 34.1937049 27.2098081 20.6011042
1.8058424 0.0595832 0.8790475 0.279247 -0.170680 0.006788 -3.3744491 -5.7139367 -3.8627908 45.8025368 36.1876816 32.5525103 22.4325433
1.7110679 0.0828772 0.9151994 0.284314 -0.131913 0.002407 -2.9587805 -6.5106366 -4.7828053 37.1809693 37.7053509 36.3771762 24.3372858
1.9547231 0.0363613 0.6953105 0.284568 -0.242391 0.004254 -2.0377665 -2.4159052 -0.4914348 62.7303419 35.0524634 9.6925141 19.2902419
1.8932548 0.0646000 0.7605377 0.298599 -0.210573 0.006366 -3.7399490 -5.3951573 -1.9109694 54.8669802 37.4641608 17.7826351 20.9913576
1.8168580 0.0895389 0.8148226 0.307000 -0.175436 0.005653 -4.0350617 -7.2157659 -3.3504250 46.5199121 39.3472662 24.1863639 22.7329422
1.7289119 0.1114669 0.8575746 0.310831 -0.139891 0.002503 -3.4874476 -7.8779981 -4.2804801 38.5186079 40.7531579 29.0085985 24.4498192
1.8780562 0.0924565 0.6895281 0.320458 -0.202301 0.002909 -4.4732232 -7.1462198 -1.1483580 52.7450729 40.0877612 8.6171744 21.6241010
1.8132662 0.1158692 0.7489321 0.328848 -0.173557 0.003609 -4.4922529 -8.6163241 -2.4571990 45.9488661 41.8575693 15.8050413 23.0115486
1.7340388 0.1367730 0.7973975 0.332690 -0.142691 0.001893 -3.8683498 -9.1231885 -3.4532727 38.8227458 43.2744134 21.4318770 24.6845002
1.7951036 0.1382631 0.6837140 0.344841 -0.166085 0.001580 -4.6992160 -9.8290889 -1.2944458 43.9238611 43.8964830 7.5795488 23.7709613
1.7268741 0.1581301 0.7367724 0.349209 -0.140722 0.000936 -4.0751412 -10.1885114 -2.3960511 38.0300603 45.1390707 13.8428074 25.1039876
1.7080516 0.1754035 0.6776446 0.360097 -0.134434 -0.000023 -3.8001575 -10.2309704 -1.1201510 36.6182168 46.9766365 6.7977213 25.5762630
1.6763240 0.1895882 0.6212299 0.366016 -0.123929 0.000000 -4.3732339 -13.0057710 -0.0000000 33.5893709 46.4899907 0.0000005 26.2805091
1.7614206 0.1573704 0.6212299 0.354579 -0.153108 0.000000 -4.2959210 -10.0067897 -0.0000000 40.8777487 45.4219193 -0.0000019 24.4054915
1.8456317 0.1166729 0.6212299 0.335498 -0.187105 0.000000 -4.8404950 -8.7327480 0.0000000 49.0421662 42.1803599 -0.0000002 22.5984771
1.9256549 0.0661627 0.6212299 0.306038 -0.225972 0.000000 -3.5402013 -4.8240023 0.0000000 58.6106826 37.8892889 -0.0000006 20.2079744
1.9983272 0.0044451 0.6212299 0.263316 -0.267602 0.000000 0.9948865 0.9850917 -0.0000000 69.2615050 32.0148150 -0.0000013 17.8357860
2.0596374 -0.0693114 0.6212299 0.204991 -0.308015 0.000000 10.3778187 6.9539794 -0.0000001 80.0530971 24.1710616 -0.0000008 15.2223802
2.1047469 -0.1545221 0.6212299 0.130476 -0.340821 0.000000 23.4631264 9.0627703 -0.0000003 89.4879821 14.2638302 -0.0000010 13.1071413
2.1287229 -0.2482961 0.6212299 0.042864 -0.358442 0.000000 35.0056806 4.2793127 -0.0000004 95.7535928 2.6335388 -0.0000012 11.5313444
2.1280603 -0.3452041 0.6212299 -0.050342 -0.355258 0.000000 37.8094215 -5.2743248 -0.0000005 97.4828715 -10.1255764 -0.0000007 11.3514697
2.1022662 -0.4383548 0.6212299 -0.139301 -0.330595 0.000000 30.2718187 -12.6942837 -0.0000003 93.9728633 -23.3216325 -0.0000007 12.2138484
2.0542563 -0.5214744 0.6212299 -0.215558 -0.289008 0.000000 17.5474407 -13.0502487 -0.0000002 85.2957363 -35.7387791 -0.0000008 14.2204420
1.9892064 -0.5906242 0.6212299 -0.275005 -0.238264 0.000000 6.6371644 -7.6427987 -0.0000000 73.0277332 -45.8009416 -0.0000003 16.4919024
1.9128240 -0.6445464 0.6212299 -0.317891 -0.185650 0.000000 0.3236305 -0.5528459 0.0000000 59.4991527 -52.7385979 0.0000001 18.9990173
1.8302071 -0.6839625 0.6212299 -0.346480 -0.136123 0.000000 -1.9057416 4.8381616 -0.0000000 46.6357359 -56.8581406 -0.0000003 21.0515119
1.7461480 -0.7105509 0.6212299 -0.364919 -0.091351 0.000000 -2.2733331 9.0286442 -0.0000001 35.4639979 -59.6856898 0.0000009 23.1256146
1.6876459 -0.7197546 0.5620860 -0.369037 -0.067738 0.002019 -2.2653487 12.3497134 1.3308794 28.6192339 -58.3991642 -7.4439035 24.1559616
1.7040299 -0.7052870 0.4979916 -0.357874 -0.076843 0.004151 -1.8667522 8.7823511 2.1717622 31.0362470 -57.5395188 -16.8032546 23.6016699
1.7109387 -0.6823587 0.4318440 -0.339596 -0.083092 0.006187 -1.7296104 7.2562972 2.9404231 32.1095624 -54.7436051 -26.0813042 23.3907086
1.7064500 -0.6513796 0.3668399 -0.315112 -0.085585 0.007215 -1.4879295 5.7360964 3.3838266 32.2590474 -50.7577281 -35.1015409 23.0486482
1.6897239 -0.6132954 0.3056713 -0.284462 -0.083196 0.007024 -1.2148021 4.4330504 3.5941554 31.0566835 -45.7184848 -43.2965298 23.1346218
1.6607987 -0.5695806 0.2506383 -0.249741 -0.075564 0.005537 -0.9226818 3.2877704 3.5580630 28.8281880 -40.0153679 -50.2782366 23.1732358
1.6204254 -0.5219990 0.2033955 -0.212135 -0.062860 0.003229 -0.6699251 2.4151236 3.4472895 25.7042302 -34.0439703 -55.9100430 23.6215850
1.5698381 -0.4723414 0.1648500 -0.173949 -0.046036 0.000629 -0.4532202 1.7313603 3.2648699 22.1222933 -28.0882352 -60.1661209 24.0011107
1.5105038 -0.4222052 0.1351997 -0.136260 -0.026406 -0.001619 -0.2835798 1.2353050 3.1256678 18.2347682 -22.4376691 -63.2014154 24.7540082
1.4439184 -0.3728708 0.1140776 -0.100703 -0.005620 -0.003073 -0.1442154 0.8380299 2.9434670 14.4659171 -17.1918797 -65.2128899 25.3024960
1.3714817 -0.3252727 0.1007412 -0.067789 0.014824 -0.003523 -0.0370603 0.5463996 2.8435339 10.8541719 -12.4310980 -66.4502693 26.1710658
1.2944601 -0.2800410 0.0942326 -0.038307 0.033658 -0.003039 0.0473130 0.3059704 2.7016072 7.6145142 -8.1945687 -67.1108563 26.7636400
1.2140508 -0.2375854 0.0935003 -0.012391 0.049842 -0.001516 0.1137105 0.1196899 2.6543970 4.7419858 -4.4110054 -67.4426690 27.6068684
1.1315153 -0.1981843 0.0974511 0.009757 0.062818 0.001729 0.0735850 -0.0163750 1.1664591 2.3104248 -1.0961740 -68.5498605 28.0911296
1.0489658 -0.1623026 0.1048732 0.028051 0.072469 0.001165 0.5557653 -0.4726912 7.0341266 0.4445653 1.6567488 -65.0620381 28.8848988
1.7080516 0.1754035 0.5648151 0.360097 -0.134434 0.000023 -3.8001579 -10.2309714 1.1201511 36.6182167 46.9766353 -6.7977198 25.5762625
1.7268741 0.1581301 0.5056873 0.349209 -0.140722 -0.000936 -4.0751411 -10.1885111 2.3960511 38.0300583 45.1390713 -13.8428093 25.1039884
1.7340388 0.1367730 0.4450622 0.332690 -0.142691 -0.001893 -3.8683499 -9.1231889 3.4532729 38.8227469 43.2744126 -21.4318758 24.6844995
1.7289119 0.1114669 0.3848851 0.310831 -0.139891 -0.002503 -3.4874479 -7.8779987 4.2804805 38.5186067 40.7531573 -29.0085984 24.4498189
1.7110679 0.0828772 0.3272604 0.284314 -0.131913 -0.002407 -2.9587802 -6.5106361 4.7828049 37.1809689 37.7053513 -36.3771767 24.3372866
1.6807097 0.0520204 0.2741850 0.254629 -0.118742 -0.001367 -2.3620276 -5.1622893 4.9513354 34.7838586 34.2351910 -43.2340816 24.4443149
1.6386659 0.0201116 0.2272800 0.223227 -0.100855 0.000424 -1.7865426 -3.9693507 4.8689169 31.5242817 30.4241072 -49.3344573 24.6826403
1.5862441 -0.0116071 0.1876216 0.191809 -0.079249 0.002626 -1.2711747 -2.9569975 4.5880042 27.5766189 26.4298632 -54.4749719 25.0659735
1.5250177 -0.0420208 0.1557004 0.161446 -0.055146 0.004757 -0.8551883 -2.1694833 4.2448807 23.2781373 22.3556628 -58.6291951 25.5548969
1.4566209 -0.0702384 0.1314848 0.133187 -0.030136 0.006369 -0.5183759 -1.5298709 3.7927893 18.8240808 18.4114060 -61.8137944 26.1019240
1.3825947 -0.0956286 0.1145499 0.107229 -0.005305 0.007170 -0.2793834 -1.0884220 3.4666423 14.4989802 14.5401794 -64.0991792 26.6717085
1.3042875 -0.1177992 0.1042130 0.083920 0.017957 0.007074 -0.0983426 -0.7346922 3.0866874 10.3836529 10.9536445 -65.6662265 27.2527709
1.2227632 -0.1365447 0.0996617 0.062959 0.038939 0.006452 0.0275235 -0.4548162 2.6399981 6.6590314 7.5995814 -66.7731127 27.8215252
1.1384624 -0.1516576 0.1000627 0.044429 0.057060 0.004521 0.1364988 -0.3325717 2.8981809 3.3158550 4.4640282 -66.8142541 28.3252799
1.7951036 0.1382631 0.5587457 0.344841 -0.166085 -0.001580 -4.6992153 -9.8290876 1.2944456 43.9238621 43.8964846 -7.5795471 23.7709614
1.8132662 0.1158692 0.4935277 0.328848 -0.173557 -0.003609 -4.4922529 -8.6163240 2.4571990 45.9488666 41.8575687 -15.8050424 23.0115485
1.8168580 0.0895389 0.4276371 0.307000 -0.175436 -0.005653 -4.0350623 -7.2157670 3.3504255 46.5199103 39.3472651 -24.1863635 22.7329427
1.8058424 0.0595832 0.3634122 0.279247 -0.170680 -0.006788 -3.3744496 -5.7139374 3.8627914 45.8025367 36.1876799 -32.5525104 22.4325432
1.7804376 0.0269426 0.3032587 0.247670 -0.159407 -0.006658 -2.7034038 -4.4045972 4.0960943 43.5302800 32.5842800 -40.4282732 22.6129193
1.7415130 -0.0070700 0.2492864 0.213584 -0.141653 -0.005278 -2.0585802 -3.2840662 4.0732740 40.0813413 28.5510732 -47.4957312 22.7706897
1.6905428 -0.0410259 0.2030090 0.179499 -0.118726 -0.002980 -1.5359172 -2.4475624 3.9876097 35.5485843 24.3221459 -53.4760398 23.3790998
1.6293645 -0.0736049 0.1652162 0.146552 -0.091930 -0.000408 -1.0821646 -1.7655124 3.7663464 30.4988273 20.0160614 -58.2694283 23.8726939
1.5598899 -0.1037446 0.1360250 0.116315 -0.063201 0.001887 -0.7285927 -1.2593589 3.5485491 25.1156869 15.8237069 -61.8998019 24.6960122
1.4838635 -0.1306912 0.1150355 0.088874 -0.034037 0.003412 -0.4404704 -0.8542844 3.2549611 19.8687684 11.7910867 -64.4433521 25.3154553
1.4026820 -0.1539707 0.1015270 0.064784 -0.006076 0.003960 -0.2262439 -0.5597093 3.0205290 14.7980830 8.0876834 -66.0949392 26.1920689
1.3172110 -0.1732884 0.0946304 0.043425 0.019856 0.003576 -0.0601173 -0.3204595 2.6821253 10.2396386 4.6398246 -67.0690117 26.7556582
1.2274289 -0.1883136 0.0934917 0.025205 0.042888 0.002378 0.0587459 -0.1574778 2.5172552 6.0121952 1.5730128 -67.4921134 27.6100050
1.8780562 0.0924565 0.5529316 0.320458 -0.202301 -0.002909 -4.4732219 -7.1462178 1.1483577 52.7450738 40.0877632 -8.6171759 21.6241009
1.8932548 0.0646000 0.4819221 0.298599 -0.210573 -0.006366 -3.7399495 -5.3951579 1.9109696 54.8669790 37.4641601 -17.7826354 20.9913576
1.8914273 0.0330013 0.4110731 0.270191 -0.210961 -0.009010 -2.8326997 -3.7473302 2.2079447 55.1539480 34.1937070 -27.2098096 20.6011037
1.8728274 -0.0015882 0.3433409 0.236609 -0.202931 -0.010252 -2.0464889 -2.5163832 2.2134955 53.4580247 30.4160039 -36.2682111 20.5900574
1.8383509 -0.0378250 0.2814689 0.199924 -0.186452 -0.009702 -1.5248753 -1.7644328 2.2011456 49.9601589 26.1389989 -44.5538612 20.8843363
1.7896553 -0.0741066 0.2275737 0.162814 -0.162728 -0.007638 -1.1915360 -1.3121084 2.2693910 44.9677188 21.6596894 -51.6551650 21.4741744
1.7289170 -0.1088945 0.1828943 0.127191 -0.133418 -0.004800 -0.9857355 -1.0433345 2.4959068 39.0068934 17.0596683 -57.3284705 22.2351872
1.6584500 -0.1409349 0.1477885 0.094736 -0.100897 -0.001963 -0.7705640 -0.7903104 2.6624263 32.5656129 12.6463354 -61.5735795 23.1484811
1.5803571 -0.1693449 0.1219228 0.065938 -0.067134 0.000196 -0.5674613 -0.5670268 2.8184070 26.1208286 8.4506249 -64.4762112 24.0886238
1.4962857 -0.1935743 0.1045239 0.041060 -0.034086 0.001317 -0.3521708 -0.3429362 2.7859584 19.9776463 4.6393916 -66.2897672 25.0255262
1.4072514 -0.2132864 0.0946237 0.019843 -0.002927 0.001305 -0.1691298 -0.1576699 2.7340874 14.3114783 1.1717687 -67.2431693 25.9519953
1.3134522 -0.2281586 0.0912367 0.002049 0.025164 0.000279 -0.0150070 -0.0051689 2.5760857 9.2342333 -1.8138735 -67.5846206 26.7959612
1.9547231 0.0363613 0.5471493 0.284568 -0.242391 -0.004254 -2.0377666 -2.4159054 0.4914349 62.7303418 35.0524633 -9.6925138 19.2902419
1.9646262 0.0028122 0.4707350 0.255671 -0.249695 -0.008355 -0.3350740 -0.3507942 0.1618615 64.7044915 31.6020334 -20.0425443 18.5166284
1.9551915 -0.0339099 0.3956344 0.220605 -0.246816 -0.011211 0.7608336 0.7107856 -0.5649315 64.0857456 27.6001432 -30.3564362 18.4485326
1.9271055 -0.0724733 0.3254138 0.181398 -0.233005 -0.011908 1.0665784 0.8945002 -1.1090164 60.9909818 23.0499264 -40.0696862 18.5846757
1.8821010 -0.1111242 0.2630313 0.141416 -0.209660 -0.010528 0.6911813 0.5203192 -0.9697235 55.6726620 18.3170619 -48.5589954 19.3471687
1.8227146 -0.1480992 0.2104071 0.102917 -0.178380 -0.007821 0.1309674 0.0875786 -0.2457481 48.8503082 13.4379693 -55.3970146 20.1810543
1.7517805 -0.1819451 0.1683187 0.068312 -0.142315 -0.004664 -0.3009840 -0.1732609 0.7641617 41.1943993 8.8182930 -60.5176548 21.4142722
1.6719346 -0.2116518 0.1365902 0.038092 -0.103844 -0.002037 -0.4540587 -0.2065928 1.6127936 33.4354579 4.4638436 -63.9784742 22.4671915
1.5852761 -0.2366187 0.1144274 0.012828 -0.065587 -0.000442 -0.4256768 -0.1125866 2.2625831 25.9246256 0.5978727 -66.0696989 23.7800477
1.4931961 -0.2565174 0.1007345 -0.008240 -0.029151 -0.000167 -0.2740615 0.0363959 2.5149515 19.1168072 -2.8126232 -67.1050252 24.7585780
1.3963077 -0.2711076 0.0943603 -0.025070 0.004173 -0.001095 -0.1101321 0.1829818 2.6831832 12.9621043 -5.7226782 -67.3687623 25.9346979
2.0218572 -0.0312810 0.5415752 0.234323 -0.283414 -0.005050 4.3573734 3.6441692 -1.0011397 73.4036375 28.2835865 -10.8882134 16.8015224
2.0240014 -0.0702911 0.4604309 0.198069 -0.287305 -0.009319 6.6580814 4.7244110 -3.0901599 74.5846110 23.9429403 -22.3011298 16.3192223
2.0047034 -0.1112489 0.3822039 0.156949 -0.278182 -0.011473 6.9138593 4.1417445 -4.9805644 72.4549605 19.1285383 -33.4710491 16.4143563
1.9654261 -0.1522580 0.3109008 0.114252 -0.256555 -0.011172 5.4092655 2.6795492 -5.5191796 67.3199548 14.0931295 -43.5625322 17.1195959
1.9089211 -0.1913323 0.2494245 0.073305 -0.224432 -0.008896 3.1596131 1.2275473 -4.4098331 59.8000584 8.9548798 -51.9338363 18.2105585
1.8385796 -0.2268180 0.1992459 0.036691 -0.185363 -0.005735 1.2750364 0.3380184 -2.4213500 50.9375237 4.1237755 -58.2545795 19.5671003
1.7577114 -0.2575929 0.1605396 0.005553 -0.142591 -0.002822 0.1392066 0.0143121 -0.3660974 41.6576810 -0.3218868 -62.5850441 21.0175099