# volRat = 0.650000
# viscRat = 5.000000
# alpha = 0.500000
# shRate = 3.889000
# tnum = 6200
# time = 4.956085
VARIABLES = X, Y, Z, U, V, W, F_B0, F_B1, F_B2, F_0, F_1, F_2, T
ZONE N=2562 E=5120 F=FEPOINT ET=TRIANGLE
1.6096167 0.2096444 0.6212299 0.368016 -0.111086 -0.000000 3.8710290 13.4494462 0.0000024 31.1057917 55.9103525 0.0000078 27.1851113
-1.6521930 0.7274694 0.6212299 0.375910 0.051003 -0.000000 -2.2550197 15.7284681 0.0000036 -25.7219237 66.8720476 0.0000027 24.6675096
1.6521930 -0.7274694 0.6212299 -0.375910 -0.051003 -0.000000 2.2550196 -15.7284674 0.0000036 25.7219235 -66.8720474 0.0000030 24.6675099
-1.6096167 -0.2096444 0.6212299 -0.368016 0.111086 -0.000000 -3.8710284 -13.4494439 0.0000024 -31.1057910 -55.9103498 0.0000121 27.1851109
0.9710634 -0.1125342 1.1255705 0.054861 0.075084 -0.011467 -1.3209902 2.3961710 16.3427879 -1.0533428 6.9774882 70.2207406 29.2227124
0.9710634 -0.1125342 0.1168892 0.054861 0.075084 0.011470 -1.3211284 2.3964576 -16.3445935 -1.0534866 6.9777453 -70.2224478 29.2227134
-0.9710634 0.1125342 1.1255705 -0.054861 -0.075084 -0.011468 1.3210465 -2.3962731 16.3434849 1.0534034 -6.9775753 70.2213956 29.2227096
-0.9710634 0.1125342 0.1168892 -0.054861 -0.075084 0.011468 1.3210044 -2.3962325 -16.3430589 1.0533645 -6.9775408 -70.2210054 29.2227149
-0.1097929 0.3680411 0.8461689 0.221117 -0.053684 0.011112 -13.3285725 -58.6042990 -35.3983706 -0.3078195 2.4409383 6.4081091 32.6285975
0.1097929 -0.3680411 0.8461689 -0.221117 0.053684 0.011111 13.3283756 58.6034027 -35.3975840 0.3076416 -2.4417947 6.4087909 32.6285993
-0.1097929 0.3680411 0.3962908 0.221118 -0.053680 -0.011114 -13.3294572 -58.6081424 35.4005674 -0.3086266 2.4373578 -6.4061429 32.6285904
0.1097929 -0.3680411 0.3962908 -0.221118 0.053679 -0.011115 13.3296657 58.6090420 35.4011409 0.3088175 -2.4365161 -6.4056555 32.6285881
1.6331021 0.2014066 0.6690584 0.368250 -0.111528 -0.000455 -4.2046899 -13.7955108 -1.1587619 30.6424951 47.6780249 5.1778916 26.9920338
1.6507023 0.1887786 0.7214861 0.360958 -0.116605 -0.000867 -3.4776854 -10.7537288 -2.0606642 32.3849845 47.6356320 11.8517414 26.4471362
1.6596910 0.1720795 0.7766253 0.349069 -0.118553 -0.000997 -3.3337982 -9.8292309 -3.0543757 33.0079964 46.1927847 18.5820651 26.2453741
1.6582636 0.1516803 0.8322961 0.332187 -0.116347 -0.001021 -3.0780170 -8.7796410 -3.9032281 33.0437877 44.2394114 25.4834926 25.8518951
1.6454886 0.1281062 0.8865864 0.311265 -0.110293 -0.001507 -2.7351988 -7.6818609 -4.5739985 32.1108434 41.8160032 32.2897906 25.8527815
1.6211283 0.1021294 0.9376634 0.286694 -0.099934 -0.002611 -2.2847217 -6.4525480 -4.9443910 30.4281834 38.9398935 38.7826709 25.7161924
1.5855706 0.0747055 0.9839549 0.260087 -0.085647 -0.004289 -1.8063428 -5.2627807 -5.0568041 27.9037606 35.7636066 44.7327589 25.9628445
1.5397132 0.0468621 1.0242870 0.232272 -0.067879 -0.006364 -1.3297617 -4.1273749 -4.8881098 24.8513736 32.3299151 50.0152534 26.0801745
1.4848017 0.0195730 1.0579609 0.204771 -0.047749 -0.008476 -0.9277509 -3.2031510 -4.6248424 21.2944004 28.7929715 54.4411238 26.5451260
1.4222602 -0.0063405 1.0847467 0.178084 -0.026224 -0.010334 -0.5843285 -2.3932416 -4.1882520 17.6219669 25.2224103 58.1165829 26.8036251
1.3535521 -0.0302677 1.1048071 0.153127 -0.004558 -0.011558 -0.3356098 -1.8253057 -3.8679275 13.8515211 21.7015117 60.9228214 27.3895755
1.2801011 -0.0518185 1.1185995 0.129852 0.016279 -0.011871 -0.1460245 -1.3788597 -3.5527653 10.2936401 18.2705553 63.0231214 27.6918806
1.2033061 -0.0708029 1.1267722 0.108535 0.035136 -0.011947 -0.0050660 -0.9486497 -3.0034344 6.9291567 15.1347674 64.9223050 28.2865545
1.1246320 -0.0871970 1.1301002 0.088861 0.051806 -0.010509 0.1096587 -0.8615452 -3.4154444 3.9628853 11.8800320 65.5876298 28.5481053
1.0463093 -0.1010406 1.1294327 0.070931 0.065717 -0.006927 0.4122519 -1.3086704 -6.7515142 1.3292308 8.7776933 64.8900366 29.1078859
1.7640429 -0.7009986 0.6898289 -0.356826 -0.101534 -0.003240 -2.0991703 7.3280336 -1.0259335 37.7716191 -58.1251588 9.7591570 22.6748636
1.7812105 -0.6802963 0.7606505 -0.340544 -0.112933 -0.005954 -2.0403582 6.1754497 -1.8752567 40.2841834 -55.7395164 19.8778000 22.1882788
1.7854916 -0.6507537 0.8315672 -0.316697 -0.119896 -0.008139 -1.6848778 4.5498428 -2.2602988 41.3986245 -51.8224082 30.2048232 21.7964566
1.7762399 -0.6129396 0.8996612 -0.285845 -0.121251 -0.008941 -1.2888273 3.1710102 -2.3187358 40.7781377 -46.5799584 39.7622695 21.6743877
1.7533109 -0.5682448 0.9621197 -0.249389 -0.116252 -0.008187 -0.9507958 2.1672102 -2.2242211 38.6774807 -40.3939025 48.1090946 21.7459573
1.7173791 -0.5185809 1.0166714 -0.209089 -0.104819 -0.006200 -0.7071673 1.5127062 -2.1410221 35.2870657 -33.7508240 54.8720660 22.1117211
1.6697743 -0.4660344 1.0618892 -0.167308 -0.087719 -0.003566 -0.5607630 1.1350587 -2.2258735 31.0345120 -27.0036358 59.9565575 22.6655305
1.6121840 -0.4125497 1.0972439 -0.125878 -0.066426 -0.001097 -0.4387163 0.8411251 -2.3519148 26.3679232 -20.5902034 63.4820967 23.3918827
1.5463587 -0.3597245 1.1229594 -0.086413 -0.042854 0.000562 -0.3342509 0.5987430 -2.5502414 21.6627135 -14.6187286 65.7201850 24.2179264
1.4739070 -0.3087450 1.1397864 -0.049924 -0.018833 0.001086 -0.2196778 0.3477863 -2.6223539 17.1642570 -9.2724036 66.9780244 25.1137061
1.3961933 -0.2604163 1.1487697 -0.017222 0.003922 0.000404 -0.1167314 0.1227043 -2.6802060 13.0700034 -4.4889080 67.5385495 25.9916087
1.3143078 -0.2152434 1.1510854 0.011367 0.024241 -0.001290 -0.0251426 -0.0758917 -2.6052105 9.4479117 -0.3091290 67.6325846 26.8469652
1.2290333 -0.1735107 1.1479198 0.035763 0.041346 -0.003627 0.0461792 -0.2345936 -2.4928538 6.2738765 3.3441967 67.5021178 27.6792131
1.1405664 -0.1354027 1.1404162 0.055736 0.055069 -0.005635 0.1113526 -0.4022817 -2.6773406 3.6431174 6.4602732 66.9159885 28.3979488
1.8498308 -0.6695935 0.6961544 -0.334982 -0.147223 -0.003643 -1.6241948 3.6757882 -0.6246417 49.6115889 -55.5599124 11.0628395 20.7211222
1.8656151 -0.6417347 0.7727763 -0.312658 -0.160444 -0.007103 -0.8210597 1.6118086 -0.6014590 52.3891223 -51.7735170 22.6888595 19.9775115
1.8651641 -0.6051448 0.8478995 -0.282084 -0.166356 -0.008987 -0.1498964 0.2605377 -0.1621289 52.7607030 -46.5763154 33.7859260 19.8040273
1.8486455 -0.5609305 0.9182168 -0.245142 -0.164522 -0.009162 0.2405641 -0.3743572 0.3522946 50.9740378 -40.0970512 43.7476486 19.7182813
1.8168447 -0.5110360 0.9808171 -0.203209 -0.154220 -0.007705 0.2391322 -0.3340719 0.4584545 47.1442627 -33.0545488 51.9594609 20.2122006
1.7713356 -0.4577660 1.0336734 -0.159633 -0.136499 -0.005079 0.0250774 -0.0311699 0.0624110 42.0349350 -25.7934652 58.1358787 20.7466255
1.7141895 -0.4033295 1.0758456 -0.115991 -0.112759 -0.002416 -0.2191247 0.2351640 -0.7134225 36.1617377 -18.9225705 62.4443913 21.7593745
1.6475783 -0.3495393 1.1073733 -0.074618 -0.085510 -0.000428 -0.3424192 0.2933807 -1.4907864 30.1868630 -12.5571375 65.1289086 22.6575394
1.5734590 -0.2977020 1.1289880 -0.036363 -0.056929 0.000316 -0.3610287 0.1936806 -2.1861411 24.4086583 -6.8984742 66.5920672 23.8662282
1.4933987 -0.2486556 1.1418135 -0.002342 -0.029226 -0.000238 -0.2804672 -0.0055342 -2.5288850 19.2041983 -1.9022593 67.1901346 24.8034701
1.4084888 -0.2028760 1.1471191 0.027567 -0.003723 -0.002004 -0.1808462 -0.2214704 -2.7718047 14.4852895 2.3924004 67.2170569 26.0119491
1.3192469 -0.1605956 1.1461750 0.052655 0.018416 -0.004551 -0.0741612 -0.4056649 -2.7579322 10.4960458 6.1385052 66.8885602 26.8118084
1.2253216 -0.1219466 1.1401551 0.073384 0.036932 -0.007542 0.0152481 -0.6028866 -2.9426462 6.9568558 9.2945529 66.2599702 27.9014615
1.9309676 -0.6251177 0.7016409 -0.301730 -0.197830 -0.004097 1.5998383 -2.4321019 0.5120640 62.7968941 -50.4548176 12.4528263 18.4351161
1.9424980 -0.5897935 0.7830425 -0.272038 -0.210518 -0.006970 3.1737634 -4.1353900 1.9630255 65.0584656 -45.3459266 25.0425087 17.8905927
1.9349958 -0.5463044 0.8612909 -0.234611 -0.213362 -0.008187 3.8319911 -4.3153678 3.5421703 64.1441684 -38.7709743 36.8215057 17.7410154
1.9093067 -0.4965036 0.9326045 -0.191686 -0.205586 -0.007260 3.3942622 -3.2859407 4.2903581 60.3799619 -31.4650080 46.7703173 18.1087427
1.8672370 -0.4428478 0.9941151 -0.146319 -0.188080 -0.004910 2.2205602 -1.8021940 3.7032634 54.4773218 -23.8211183 54.5079971 18.8643497
1.8113123 -0.3878071 1.0442519 -0.100959 -0.162503 -0.002181 0.9992689 -0.6379407 2.1751246 47.3540802 -16.5468040 59.9490038 19.9467925
1.7442561 -0.3334249 1.0827107 -0.057911 -0.131711 -0.000048 0.1202933 -0.0510192 0.3434057 39.8907588 -9.8574022 63.4235914 21.1815972
1.6685300 -0.2811436 1.1101313 -0.018511 -0.098548 0.000836 -0.3160801 0.0410481 -1.2049053 32.6615830 -3.9603434 65.3183671 22.5092320
1.5860617 -0.2318420 1.1276921 0.016548 -0.065629 0.000218 -0.4332951 -0.1373593 -2.2809780 26.0129297 1.1652944 66.1283498 23.8285730
1.4981373 -0.1859786 1.1367881 0.046851 -0.034840 -0.001724 -0.3668274 -0.3958244 -2.8271948 20.1670129 5.5455532 66.2114733 25.0715835
1.4053444 -0.1437555 1.1388164 0.072428 -0.007484 -0.004663 -0.2447717 -0.6431616 -3.0844532 15.0482670 9.3110686 65.8737908 26.2500421
1.3074645 -0.1052847 1.1350812 0.093035 0.015953 -0.008179 -0.1152487 -0.8305445 -3.1080081 10.6943975 12.4685584 65.3419412 27.3213057
2.0037111 -0.5660570 0.7063756 -0.253681 -0.249784 -0.003608 8.9035899 -9.0201648 2.4785291 75.9507442 -42.4622347 13.5548128 16.0771797
2.0080500 -0.5235759 0.7912794 -0.216331 -0.259232 -0.005566 10.7894632 -9.0697970 5.8862963 76.8323714 -35.9974388 26.8811379 15.5703244
1.9910681 -0.4742997 0.8710997 -0.172656 -0.255656 -0.005265 10.0304827 -6.8907493 8.2747431 73.8047732 -28.6305962 38.7419675 15.9270942
1.9545216 -0.4207538 0.9418333 -0.126028 -0.239765 -0.003226 7.3688655 -3.9450550 8.3964641 67.6592588 -20.8478123 48.3835889 16.6244982
1.9013068 -0.3656280 1.0009445 -0.079440 -0.213185 -0.000487 4.1458206 -1.5319670 6.2862253 59.4848260 -13.3832722 55.4392569 17.9743733
1.8347743 -0.3111935 1.0475129 -0.035529 -0.179482 0.001783 1.6601522 -0.2816547 3.3088480 50.5774497 -6.5075306 60.1047347 19.3482131
1.7580418 -0.2590327 1.0819060 0.004427 -0.141961 0.002653 0.1490104 0.0138177 0.3916506 41.7036407 -0.5054040 62.7871724 21.0623091
1.6735799 -0.2100672 1.1052821 0.039447 -0.104035 0.001932 -0.4551558 -0.2115222 -1.6035617 33.5913962 4.6682639 64.0537138 22.4907810
1.5830596 -0.1647351 1.1191375 0.069649 -0.067997 -0.000389 -0.5840900 -0.6047827 -2.8472488 26.3473619 9.0249228 64.4032936 24.1195423
1.4873514 -0.1231956 1.1250242 0.094695 -0.035460 -0.003797 -0.4646625 -0.9312397 -3.3149849 20.1484596 12.7024462 64.1979390 25.3493263
1.3865613 -0.0855132 1.1243992 0.114850 -0.007272 -0.007842 -0.3049391 -1.2017936 -3.5409896 14.8066056 15.7668152 63.6893421 26.7357028
2.0630842 -0.4922411 0.7099769 -0.188856 -0.297436 -0.002376 20.0912598 -12.7197187 5.0453494 87.1305064 -31.5577408 14.2463280 13.8777986
2.0574943 -0.4439920 0.7967464 -0.144989 -0.300069 -0.002570 20.2048705 -9.7797298 10.0746889 85.7700344 -24.3338438 27.7255041 13.8742008
2.0291226 -0.3911831 0.8763261 -0.097679 -0.287462 -0.000742 16.0067008 -5.4158090 12.2065374 80.1704478 -16.7156458 39.3226487 14.6252159
1.9808634 -0.3366461 0.9449046 -0.050657 -0.261589 0.002133 10.0092715 -1.8132579 10.6496351 71.6151758 -9.2777429 48.3247115 16.0062172
1.9165732 -0.2828393 1.0005671 -0.006541 -0.226174 0.004509 4.7331663 0.0206813 6.7625862 61.4969938 -2.3969314 54.6382758 17.7189909
1.8400918 -0.2314719 1.0431128 0.032916 -0.185238 0.005510 1.3536212 0.3258381 2.5632379 51.1817896 3.5755982 58.5305724 19.5734799
1.7545771 -0.1835005 1.0734870 0.067255 -0.142948 0.004604 -0.2684769 -0.1508762 -0.6755496 41.4962257 8.6830498 60.6618670 21.4097537
1.6622519 -0.1393335 1.0932045 0.096260 -0.102067 0.001948 -0.7790157 -0.7993380 -2.6467955 32.9005258 12.8963562 61.5395854 23.1457209
1.5644141 -0.0990726 1.1039405 0.120213 -0.064819 -0.002009 -0.7584113 -1.3232656 -3.5928044 25.4556525 16.4338386 61.6735125 24.7151830
1.4615593 -0.0627099 1.1073137 0.139100 -0.032150 -0.006689 -0.5535558 -1.6448790 -3.8728473 19.1753200 19.3429846 61.3793435 26.1377197
2.1036591 -0.4057789 0.7119521 -0.108542 -0.333412 -0.000387 30.9853446 -10.0221276 7.2429390 94.1535075 -18.7622114 14.3653074 12.2727866
2.0862036 -0.3543757 0.7986498 -0.061253 -0.326188 0.001433 26.7709539 -4.9131938 12.5782117 90.1782322 -11.5255051 27.5249788 12.7579540
2.0457236 -0.3011778 0.8761973 -0.014399 -0.303130 0.004489 18.1358764 -0.6236752 13.1754105 82.1771563 -4.3563373 38.5049461 14.2196761
1.9861692 -0.2487507 0.9413631 0.028940 -0.267870 0.007312 9.5462768 1.3252445 9.7740214 71.7078272 2.2953801 46.7584365 15.9676905
1.9119509 -0.1988899 0.9929819 0.067067 -0.225193 0.008615 3.4300265 1.2171180 4.7606387 60.3550258 8.0974233 52.2998889 18.1613608
1.8269542 -0.1525712 1.0314797 0.099560 -0.179740 0.007793 0.2580184 0.1652106 0.4789435 49.3941937 12.9942820 55.6266770 20.1208570
1.7340688 -0.1101665 1.0581933 0.126605 -0.135146 0.004903 -0.9636203 -0.9993598 -2.3984299 39.5089133 17.0111011 57.3754230 22.1934908
1.6351399 -0.0717131 1.0748315 0.148501 -0.093887 0.000500 -1.1099789 -1.7961431 -3.7665666 30.9576388 20.3261728 58.1017564 23.8457941
1.5311141 -0.0371286 1.0831383 0.165612 -0.057354 -0.004810 -0.8967677 -2.2662990 -4.2907158 23.6984572 23.0063368 58.2498705 25.5648176
2.1210417 -0.3114251 0.7119232 -0.018302 -0.350904 0.001892 35.0285847 -1.7310614 7.8363047 95.9484260 -5.6098000 13.9852810 11.7419720
2.0912512 -0.2602599 0.7965892 0.027785 -0.332892 0.005389 25.9073916 2.3924938 11.7838328 89.6130043 1.1203147 26.4603301 12.9263853
2.0394765 -0.2099166 0.8706383 0.069802 -0.300507 0.008882 14.7819062 3.7703877 10.5061964 79.8015658 7.4558208 36.5835657 14.7960558
1.9702600 -0.1622118 0.9316120 0.105953 -0.258523 0.010925 6.0460152 2.7508720 6.1166650 68.2898533 13.0114241 43.9739951 16.9905459
1.8880382 -0.1181156 0.9790210 0.136061 -0.212059 0.010545 1.0010787 0.7148814 1.3861113 56.5448967 17.6409651 48.8674354 19.2269044
1.7963812 -0.0779595 1.0137202 0.160307 -0.165239 0.007854 -1.1003434 -1.1718587 -2.0570581 45.7172578 21.3629420 51.7837852 21.3706172
1.6977664 -0.0417233 1.0372596 0.179640 -0.121246 0.003252 -1.5513404 -2.4204435 -3.9273604 36.1741689 24.3813786 53.3875943 23.3132531
1.5936729 -0.0092601 1.0514220 0.194273 -0.081777 -0.002421 -1.3204578 -3.0284316 -4.6077318 28.1066633 26.8151831 54.1499976 25.0367186
2.1135019 -0.2157243 0.7098327 0.072815 -0.346976 0.003866 29.1897115 6.2283878 6.4077629 92.7071750 6.8319528 13.2395232 12.4336392
2.0725537 -0.1679924 0.7908196 0.113270 -0.319999 0.008211 18.1417948 6.6527313 8.1846277 84.5769567 12.7327998 24.7527431 13.9879750
2.0115069 -0.1229183 0.8603885 0.147276 -0.281547 0.011318 8.0323696 4.4441452 5.7199169 73.8653101 17.9286679 33.8640273 16.2002079
1.9349023 -0.0814325 0.9168101 0.174551 -0.236574 0.011999 1.6349444 1.2949747 1.6732565 62.2373753 22.2127893 40.4111254 18.3797827
1.8468061 -0.0438250 0.9600749 0.195880 -0.189916 0.010010 -1.3299636 -1.4760205 -1.8804804 50.9991151 25.6583160 44.7525378 20.7181215
1.7503317 -0.0100315 0.9912854 0.212166 -0.144852 0.005691 -2.0474541 -3.1679001 -3.9460533 40.9214151 28.3971093 47.4889326 22.6456576
1.6475645 0.0201348 1.0120883 0.224161 -0.103829 -0.000023 -1.8410594 -3.9975731 -4.8538299 32.1997326 30.5791735 49.0923043 24.6063607
2.0826073 -0.1250824 0.7059929 0.155699 -0.324260 0.004962 17.3075374 8.3838505 3.8134964 85.3489749 17.9418586 12.2311631 14.1364004
2.0327565 -0.0828864 0.7821597 0.187838 -0.291974 0.009295 8.1728852 5.3857865 3.7379842 76.3837269 22.7207615 22.5957216 16.0166677
1.9648626 -0.0441788 0.8467033 0.212907 -0.251567 0.011384 1.5709326 1.3838736 1.1448344 65.6889058 26.6987318 30.6667780 18.1733893
1.8830533 -0.0091979 0.8984319 0.231507 -0.207368 0.010642 -1.7412785 -2.0431060 -1.8403423 54.7978037 29.8237253 36.4868901 20.3563787
1.7909110 0.0221461 0.9376380 0.245066 -0.163372 0.007181 -2.6631900 -4.1799371 -3.9234210 44.6015194 32.2869053 40.4780916 22.4333921
1.6911491 0.0500488 0.9655740 0.254288 -0.122239 0.001923 -2.4200414 -5.1325405 -4.9040187 35.6296853 34.2131202 43.0643713 24.3189324
2.0323466 -0.0439936 0.7009436 0.224391 -0.289097 0.005087 5.9483640 4.6458048 1.3424585 75.4486595 27.1364462 11.0402059 16.4436849
1.9760134 -0.0080694 0.7716420 0.247807 -0.255366 0.008556 0.5763810 0.5691547 0.2724602 66.5716453 30.7036070 20.2663676 18.1781791
1.9033219 0.0243698 0.8308724 0.264581 -0.216232 0.009417 -2.4674845 -3.1058800 -1.8743840 56.7428025 33.5531820 27.4060536 20.3082236
1.8179149 0.0534419 0.8777864 0.275871 -0.175323 0.007356 -3.3177631 -5.3867959 -3.6847562 47.0901981 35.7918473 32.6281307 22.1956860
1.7230270 0.0793122 0.9129080 0.283034 -0.135921 0.003050 -3.0270639 -6.4288214 -4.7234590 38.1932800 37.5487764 36.2677754 24.1659741
1.9675183 0.0255388 0.6952376 0.277143 -0.248616 0.004406 -1.2403494 -1.3892310 -0.2918154 64.7199401 34.2241310 9.7972856 18.9195326
1.9065774 0.0555310 0.7601526 0.292967 -0.216394 0.006722 -3.4050310 -4.6683663 -1.6909121 56.6148765 36.8295397 17.9098685 20.6588117
1.8303514 0.0825567 0.8138296 0.303278 -0.180613 0.006198 -3.9951341 -6.8303526 -3.2107707 47.9654269 38.9129881 24.2467305 22.4606595
1.7422653 0.1067419 0.8556849 0.308945 -0.144321 0.003161 -3.5732697 -7.7601576 -4.2258625 39.6756955 40.5116399 28.9303866 24.2345445
1.8924663 0.0834966 0.6892866 0.315251 -0.208327 0.003109 -4.2530073 -6.4588683 -1.0580627 54.5251408 39.4990393 8.6730452 21.2783743
1.8279009 0.1085267 0.7482002 0.325117 -0.179003 0.004014 -4.4957816 -8.2317480 -2.3741756 47.4812273 41.4151396 15.8419975 22.7065454
1.7485638 0.1313160 0.7959045 0.330508 -0.147420 0.002455 -3.9811548 -9.0033744 -3.4172582 40.0726359 42.9821209 21.3740605 24.4408541
1.8105386 0.1310045 0.6832915 0.341450 -0.171467 0.001818 -4.7717862 -9.5254660 -1.2656720 45.4387031 43.4693037 7.5799736 23.4663961
1.7422775 0.1523387 0.7356999 0.346978 -0.145567 0.001335 -4.2044315 -10.0657073 -2.3717650 39.3298741 44.8638981 13.7939757 24.8471943
1.7240058 0.1696370 0.6770561 0.358232 -0.138722 0.000229 -4.0090788 -10.3316369 -1.1313360 37.8270557 46.5276098 6.7501318 25.3144052
1.6924930 0.1842005 0.6212299 0.364103 -0.128982 -0.000000 -4.4543378 -12.6860350 -0.0000001 34.8536287 46.4798064 0.0000006 26.0358650
1.7772937 0.1506248 0.6212299 0.351695 -0.158290 -0.000000 -4.3856754 -9.7584229 -0.0000000 42.3139826 45.0776582 0.0000025 24.1121632
1.8607448 0.1083270 0.6212299 0.331019 -0.192968 -0.000000 -4.7723403 -8.1963619 0.0000000 50.7492881 41.6625206 -0.0000003 22.2578117
1.9394630 0.0560070 0.6212299 0.299542 -0.232290 -0.000000 -3.0118951 -3.8875920 0.0000000 60.5641843 37.1667400 0.0000009 19.8329961
2.0101838 -0.0076387 0.6212299 0.254378 -0.273795 -0.000000 2.2914722 2.1309687 -0.0000000 71.3708814 31.0042694 -0.0000009 17.4523456
2.0687965 -0.0832467 0.6212299 0.193448 -0.313146 -0.000000 12.4885114 7.7242317 -0.0000001 82.0989554 22.8015795 0.0000002 14.8755198
2.1104434 -0.1699108 0.6212299 0.116655 -0.343707 -0.000000 25.7427420 8.7593752 -0.0000003 91.1661304 12.5348791 -0.0000009 12.8691872
2.1303674 -0.2643507 0.6212299 0.027788 -0.358040 -0.000000 36.2225967 2.8537603 -0.0000005 96.7811833 0.6030660 -0.0000002 11.4772779
2.1254861 -0.3608517 0.6212299 -0.065136 -0.351208 -0.000000 37.1878571 -6.8304064 -0.0000005 97.6658753 -12.3713558 -0.0000007 11.5100661
2.0958557 -0.4525304 0.6212299 -0.152303 -0.323442 -0.000000 28.3385630 -13.2631012 -0.0000004 93.2247512 -25.6154944 -0.0000003 12.5541832
2.0448231 -0.5334306 0.6212299 -0.225861 -0.279972 -0.000000 15.5335356 -12.4569835 -0.0000002 83.7603556 -37.7817580 -0.0000006 14.6601908
1.9777221 -0.6000600 0.6212299 -0.282420 -0.228628 -0.000000 5.3159967 -6.5227816 -0.0000001 71.0596516 -47.3767442 -0.0000000 16.9512276
1.9001831 -0.6515347 0.6212299 -0.322815 -0.176422 -0.000000 -0.2522687 0.4577760 0.0000000 57.4851983 -53.8086382 -0.0000000 19.4276366
1.8171211 -0.6887996 0.6212299 -0.349433 -0.127863 -0.000000 -2.0345769 5.5016403 0.0000000 44.7988484 -57.5217567 -0.0000003 21.4256540
1.7331329 -0.7136324 0.6212299 -0.366495 -0.084224 -0.000000 -2.1988026 9.3947109 0.0000000 33.9087176 -60.0829124 0.0000010 23.4423809
1.6749717 -0.7217752 0.5615675 -0.369919 -0.061615 0.001933 -2.1098800 12.5071923 1.3507388 27.2638034 -58.5247897 -7.4942116 24.4443804
1.6915595 -0.7074208 0.4970024 -0.358891 -0.070518 0.004053 -1.7613544 8.9431406 2.2117330 29.6676729 -57.8203819 -16.9000770 23.8782374
1.6990082 -0.6843554 0.4304299 -0.340588 -0.076827 0.006027 -1.6538122 7.4380556 3.0126241 30.7888755 -55.0401233 -26.2060926 23.6705773
1.6954000 -0.6529194 0.3650355 -0.315843 -0.079754 0.007020 -1.4404091 5.9126240 3.4877635 31.0456330 -51.0019697 -35.2768807 23.2985669
1.6798531 -0.6140032 0.3035020 -0.284703 -0.077988 0.006814 -1.1802446 4.5509464 3.6959689 30.0235217 -45.8911848 -43.5279947 23.3572647
1.6523272 -0.5690518 0.2481434 -0.249151 -0.071168 0.005347 -0.8956352 3.3402456 3.6340668 27.9998049 -40.0480133 -50.5779470 23.3499291
1.6134772 -0.5198385 0.2006531 -0.210412 -0.059379 0.003090 -0.6468579 2.4095663 3.4797193 25.0943260 -33.8825734 -56.2765099 23.7663387
1.5644429 -0.4682103 0.1619910 -0.170830 -0.043473 0.000571 -0.4359031 1.6886131 3.2560774 21.7222418 -27.6875645 -60.5722079 24.0977183
1.5066131 -0.4158617 0.1324042 -0.131552 -0.024701 -0.001519 -0.2737269 1.1731371 3.0896934 18.0149869 -21.7708223 -63.6245953 24.8327918
1.4414262 -0.3641992 0.1115564 -0.094345 -0.004722 -0.002747 -0.1425682 0.7694499 2.9014886 14.4009773 -16.2359174 -65.6136604 25.3530476
1.3702424 -0.3142962 0.0987087 -0.059810 0.015016 -0.002890 -0.0421812 0.4737623 2.8105941 10.9104035 -11.2015188 -66.8016757 26.2222259
1.2943012 -0.2669217 0.0928783 -0.028895 0.033171 -0.002009 0.0372689 0.2266573 2.6468062 7.7767081 -6.6908703 -67.4179535 26.8006586
1.2147781 -0.2226136 0.0929645 -0.001755 0.048777 -0.000160 0.1026601 0.0365786 2.6816904 4.9710740 -2.6658470 -67.5967153 27.6683547
1.1329140 -0.1817585 0.0978073 0.021169 0.061262 0.002507 0.1121852 -0.0950815 1.9440156 2.6592147 0.8399858 -67.8555995 28.1369260
1.0508044 -0.1449045 0.1061141 0.040283 0.070201 0.005723 0.3368712 -0.4835378 4.6096514 0.5720796 3.9130495 -67.4243392 28.9686390
1.7240058 0.1696370 0.5654036 0.358232 -0.138722 -0.000229 -4.0090783 -10.3316356 1.1313357 37.8270582 46.5276111 -6.7501318 25.3144068
1.7422775 0.1523387 0.5067599 0.346978 -0.145567 -0.001335 -4.2044318 -10.0657082 2.3717651 39.3298730 44.8638968 -13.7939773 24.8471930
1.7485638 0.1313160 0.4465552 0.330508 -0.147420 -0.002455 -3.9811552 -9.0033753 3.4172585 40.0726352 42.9821215 -21.3740580 24.4408563
1.7422653 0.1067419 0.3867748 0.308945 -0.144321 -0.003161 -3.5732690 -7.7601563 4.2258616 39.6756952 40.5116407 -28.9303894 24.2345426
1.7230270 0.0793122 0.3295517 0.283034 -0.135921 -0.003050 -3.0270642 -6.4288223 4.7234595 38.1932787 37.5487782 -36.2677727 24.1659764
1.6911491 0.0500488 0.2768857 0.254288 -0.122239 -0.001923 -2.4200412 -5.1325402 4.9040183 35.6296839 34.2131192 -43.0643738 24.3189308
1.6475645 0.0201348 0.2303714 0.224161 -0.103829 0.000023 -1.8410593 -3.9975731 4.8538297 32.1997326 30.5791776 -49.0923017 24.6063624
1.5936729 -0.0092601 0.1910377 0.194273 -0.081777 0.002421 -1.3204577 -3.0284314 4.6077313 28.1066612 26.8151811 -54.1500004 25.0367173
1.5311141 -0.0371285 0.1593214 0.165612 -0.057354 0.004810 -0.8967678 -2.2662991 4.2907160 23.6984571 23.0063414 -58.2498680 25.5648195
1.4615593 -0.0627099 0.1351460 0.139100 -0.032150 0.006689 -0.5535559 -1.6448793 3.8728479 19.1753191 19.3429817 -61.3793441 26.1377176
1.3865613 -0.0855132 0.1180606 0.114850 -0.007272 0.007842 -0.3049391 -1.2017935 3.5409892 14.8066048 15.7668205 -63.6893411 26.7357053
1.3074645 -0.1052847 0.1073785 0.093035 0.015953 0.008179 -0.1152484 -0.8305424 3.1080000 10.6943975 12.4685568 -65.3419497 27.3213043
1.2253216 -0.1219466 0.1023046 0.073384 0.036932 0.007541 0.0152483 -0.6028940 2.9426821 6.9568565 9.2945515 -66.2599354 27.9014623
1.1405664 -0.1354027 0.1020435 0.055736 0.055069 0.005635 0.1113493 -0.4022699 2.6772618 3.6431157 6.4602803 -66.9160647 28.3979488
1.8105386 0.1310045 0.5591683 0.341450 -0.171467 -0.001818 -4.7717859 -9.5254656 1.2656719 45.4387018 43.4693043 -7.5799762 23.4663954
1.8279009 0.1085267 0.4942595 0.325117 -0.179003 -0.004014 -4.4957816 -8.2317480 2.3741756 47.4812276 41.4151411 -15.8419933 22.7065462
1.8303514 0.0825567 0.4286302 0.303278 -0.180613 -0.006198 -3.9951338 -6.8303522 3.2107705 47.9654261 38.9129877 -24.2467339 22.4606588
1.8179149 0.0534419 0.3646733 0.275871 -0.175323 -0.007356 -3.3177637 -5.3867972 3.6847570 47.0901974 35.7918488 -32.6281266 22.1956874
1.7909110 0.0221461 0.3048218 0.245066 -0.163372 -0.007181 -2.6631903 -4.1799377 3.9234216 44.6015178 32.2869034 -40.4780936 22.4333912
1.7503317 -0.0100315 0.2511744 0.212166 -0.144852 -0.005691 -2.0474544 -3.1679008 3.9460541 40.9214147 28.3971117 -47.4889298 22.6456593
1.6977664 -0.0417232 0.2052001 0.179640 -0.121246 -0.003252 -1.5513402 -2.4204434 3.9273602 36.1741672 24.3813767 -53.3875969 23.3132525
1.6351399 -0.0717130 0.1676282 0.148501 -0.093887 -0.000500 -1.1099787 -1.7961429 3.7665662 30.9576401 20.3261767 -58.1017551 23.8457951
1.5644141 -0.0990726 0.1385193 0.120213 -0.064819 0.002009 -0.7584113 -1.3232658 3.5928047 25.4556497 16.4338357 -61.6735143 24.7151829
1.4873514 -0.1231956 0.1174355 0.094695 -0.035460 0.003797 -0.4646624 -0.9312395 3.3149843 20.1484609 12.7024495 -64.1979386 25.3493275
1.4053444 -0.1437555 0.1036434 0.072428 -0.007484 0.004663 -0.2447717 -0.6431617 3.0844535 15.0482653 9.3110658 -65.8737916 26.2500410
1.3192469 -0.1605956 0.0962847 0.052655 0.018416 0.004551 -0.0741613 -0.4056655 2.7579356 10.4960460 6.1385071 -66.8885565 26.8118099
1.2290333 -0.1735107 0.0945400 0.035763 0.041346 0.003627 0.0461790 -0.2345928 2.4928454 6.2738732 3.3441959 -67.5021265 27.6792130
1.8924663 0.0834966 0.5531732 0.315251 -0.208327 -0.003109 -4.2530064 -6.4588670 1.0580625 54.5251422 39.4990410 -8.6730457 21.2783751
1.9065774 0.0555310 0.4823072 0.292967 -0.216394 -0.006722 -3.4050314 -4.6683669 1.6909124 56.6148750 36.8295392 -17.9098702 20.6588113
1.9033219 0.0243698 0.4115873 0.264581 -0.216232 -0.009417 -2.4674842 -3.1058797 1.8743838 56.7428025 33.5531840 -27.4060527 20.3082245
1.8830533 -0.0091979 0.3440278 0.231507 -0.207368 -0.010642 -1.7412788 -2.0431064 1.8403427 54.7978018 29.8237246 -36.4868923 20.3563781
1.8468061 -0.0438250 0.2823848 0.195880 -0.189916 -0.010010 -1.3299633 -1.4760202 1.8804801 50.9991151 25.6583194 -44.7525373 20.7181228
1.7963812 -0.0779595 0.2287396 0.160307 -0.165239 -0.007855 -1.1003440 -1.1718594 2.0570592 45.7172554 21.3629404 -51.7837858 21.3706161
1.7340688 -0.1101665 0.1842664 0.126605 -0.135146 -0.004903 -0.9636210 -0.9993606 2.3984316 39.5089123 17.0111039 -57.3754204 22.1934923
1.6622519 -0.1393335 0.1492552 0.096260 -0.102067 -0.001948 -0.7790158 -0.7993382 2.6467960 32.9005232 12.8963546 -61.5395860 23.1457199
1.5830596 -0.1647351 0.1233222 0.069649 -0.067997 0.000389 -0.5840900 -0.6047828 2.8472492 26.3473630 9.0249271 -64.4032925 24.1195431
1.4981373 -0.1859786 0.1056716 0.046851 -0.034840 0.001724 -0.3668275 -0.3958245 2.8271952 20.1670100 5.5455510 -66.2114734 25.0715829
1.4084888 -0.2028760 0.0953406 0.027567 -0.003723 0.002004 -0.1808462 -0.2214705 2.7718051 14.4852904 2.3924048 -67.2170566 26.0119506
1.3143078 -0.2152433 0.0913743 0.011367 0.024241 0.001290 -0.0251426 -0.0758917 2.6052098 9.4479119 -0.3091314 -67.6325851 26.8469630
1.9675183 0.0255388 0.5472221 0.277143 -0.248616 -0.004406 -1.2403496 -1.3892312 0.2918155 64.7199396 34.2241309 -9.7972868 18.9195324
1.9760134 -0.0080694 0.4708177 0.247807 -0.255366 -0.008556 0.5763797 0.5691534 -0.2724596 66.5716443 30.7036068 -20.2663659 18.1781796
1.9648626 -0.0441788 0.3957565 0.212907 -0.251567 -0.011384 1.5709307 1.3838720 -1.1448331 65.6889030 26.6987299 -30.6667790 18.1733893
1.9349022 -0.0814325 0.3256497 0.174551 -0.236574 -0.011999 1.6349443 1.2949747 -1.6732565 62.2373762 22.2127913 -40.4111242 18.3797833
1.8880382 -0.1181156 0.2634387 0.136061 -0.212059 -0.010545 1.0010791 0.7148817 -1.3861119 56.5448954 17.6409645 -48.8674391 19.2269047
1.8269542 -0.1525712 0.2109801 0.099560 -0.179740 -0.007793 0.2580192 0.1652111 -0.4789450 49.3941957 12.9942848 -55.6266780 20.1208579
1.7545771 -0.1835005 0.1689727 0.067255 -0.142948 -0.004604 -0.2684770 -0.1508762 0.6755497 41.4962234 8.6830483 -60.6618687 21.4097536
1.6735799 -0.2100672 0.1371776 0.039447 -0.104035 -0.001932 -0.4551560 -0.2115223 1.6035628 33.5913971 4.6682657 -64.0537124 22.4907820
1.5860617 -0.2318420 0.1147677 0.016548 -0.065629 -0.000218 -0.4332951 -0.1373594 2.2809784 26.0129262 1.1652925 -66.1283507 23.8285733
1.4933987 -0.2486556 0.1006463 -0.002342 -0.029226 0.000238 -0.2804671 -0.0055342 2.5288848 19.2042012 -1.9022574 -67.1901346 24.8034697
1.3961933 -0.2604163 0.0936900 -0.017222 0.003922 -0.000404 -0.1167314 0.1227043 2.6802060 13.0699982 -4.4889103 -67.5385500 25.9916100
2.0323466 -0.0439936 0.5415161 0.224391 -0.289097 -0.005087 5.9483632 4.6458042 -1.3424584 75.4486584 27.1364462 -11.0402066 16.4436851
2.0327565 -0.0828864 0.4603000 0.187838 -0.291974 -0.009295 8.1728844 5.3857861 -3.7379840 76.3837257 22.7207613 -22.5957230 16.0166676
2.0115069 -0.1229183 0.3820712 0.147276 -0.281547 -0.011318 8.0323691 4.4441451 -5.7199168 73.8653094 17.9286694 -33.8640277 16.2002084
1.9702600 -0.1622118 0.3108477 0.105953 -0.258523 -0.010925 6.0460139 2.7508716 -6.1166640 68.2898507 13.0114237 -43.9739962 16.9905457
1.9119509 -0.1988899 0.2494778 0.067067 -0.225193 -0.008615 3.4300270 1.2171183 -4.7606396 60.3550266 8.0974261 -52.2998897 18.1613610
1.8400918 -0.2314719 0.1993469 0.032916 -0.185238 -0.005510 1.3536205 0.3258380 -2.5632366 51.1817865 3.5755975 -58.5305729 19.5734798
1.7580417 -0.2590327 0.1605537 0.004427 -0.141961 -0.002654 0.1490101 0.0138177 -0.3916498 41.7036411 -0.5054010 -62.7871719 21.0623096