# volRat = 0.650000
# viscRat = 5.000000
# alpha = 0.500000
# shRate = 3.889000
# tnum = 2000
# time = 1.290549
VARIABLES = X, Y, Z, U, V, W, F_B0, F_B1, F_B2, F_0, F_1, F_2, T
ZONE N=2562 E=5120 F=FEPOINT ET=TRIANGLE
1.6052429 0.2152311 0.6212299 0.373337 -0.114277 -0.000000 3.6543795 12.6429390 0.0000029 30.7202577 53.6210630 0.0000030 27.5266137
-1.6810470 0.7225745 0.6212299 0.375211 0.071592 0.000000 -2.4907637 13.4591739 0.0000032 -29.2427055 64.9523999 0.0000028 24.4277847
1.6810470 -0.7225745 0.6212299 -0.375211 -0.071592 -0.000000 2.4907641 -13.4591767 0.0000032 29.2427241 -64.9524099 0.0000030 24.4278207
-1.6052429 -0.2152311 0.6212299 -0.373337 0.114277 0.000000 -3.6543820 -12.6429478 0.0000029 -30.7202438 -53.6210793 0.0000027 27.5266261
0.9885648 -0.0373588 1.1115543 0.106811 0.066554 -0.018143 -1.2796029 6.8355841 21.0682941 -0.0402206 18.9594339 74.2244274 29.7966988
0.9885648 -0.0373588 0.1309055 0.106811 0.066554 0.018143 -1.2796052 6.8356715 -21.0684728 -0.0402259 18.9595099 -74.2246155 29.7966983
-0.9885648 0.0373588 1.1115543 -0.106811 -0.066554 -0.018143 1.2796032 -6.8355855 21.0682987 0.0402152 -18.9595078 74.2244057 29.7966801
-0.9885648 0.0373588 0.1309055 -0.106811 -0.066553 0.018143 1.2796057 -6.8356742 -21.0684814 0.0402210 -18.9595853 -74.2245977 29.7966795
-0.0601910 0.3533795 0.8421772 0.217088 -0.047560 0.011250 -12.2809397 -57.0548667 -34.4172623 1.0794053 8.3730229 9.8679227 32.9825346
0.0601910 -0.3533795 0.8421773 -0.217093 0.047539 0.011262 12.2938530 57.1148664 -34.4532169 -1.0662654 -8.3138966 9.8331689 32.9827373
-0.0601910 0.3533795 0.4002825 0.217088 -0.047560 -0.011250 -12.2809128 -57.0547146 34.4170479 1.0794310 8.3731789 -9.8681119 32.9825364
0.0601910 -0.3533795 0.4002825 -0.217093 0.047539 -0.011262 12.2937902 57.1145176 34.4531505 -1.0663273 -8.3142281 -9.8332559 32.9827375
1.6280499 0.2076940 0.6609668 0.372495 -0.119860 -0.000759 -3.9664611 -12.9990487 -0.8960750 31.3669410 49.6834635 4.3318269 27.3423725
1.6457348 0.1972549 0.7050938 0.367238 -0.124489 -0.001256 -3.5014980 -10.8473994 -1.7162712 32.7917546 48.7286667 9.9532690 26.8263641
1.6554727 0.1843714 0.7523182 0.358694 -0.126562 -0.001589 -3.3271053 -9.8756805 -2.5326334 33.5282777 47.8171172 15.7586963 26.6679137
1.6553993 0.1693859 0.8009900 0.346389 -0.125214 -0.001988 -3.1791306 -9.1960961 -3.3585960 33.6061168 46.2510037 21.7414310 26.3255949
1.6445254 0.1526319 0.8495728 0.331162 -0.120158 -0.002777 -2.8859767 -8.3002298 -4.0229447 32.8268581 44.6112328 27.8226422 26.3846820
1.6225249 0.1345340 0.8965020 0.313038 -0.111033 -0.004182 -2.5000783 -7.3161222 -4.4986226 31.3202671 42.6037326 33.7459842 26.3063988
1.5896552 0.1155862 0.9403499 0.293102 -0.098162 -0.006225 -2.0712176 -6.3332319 -4.7872539 28.9919789 40.3836561 39.3139091 26.6029445
1.5466497 0.0962946 0.9799600 0.271719 -0.081863 -0.008868 -1.6110230 -5.3104554 -4.8221460 26.1455255 37.9587948 44.4559979 26.7593701
1.4945726 0.0771098 1.0145328 0.249940 -0.063080 -0.011784 -1.1960291 -4.4162978 -4.7360278 22.7909524 35.4418226 48.9482242 27.2496228
1.4346670 0.0583802 1.0436397 0.228002 -0.042535 -0.014751 -0.8164970 -3.5534717 -4.4458786 19.2806217 32.8147306 52.9190879 27.5181083
1.3682318 0.0403324 1.0671764 0.206571 -0.021335 -0.017363 -0.5257905 -2.9101735 -4.2144859 15.6201978 30.1086351 56.1795814 28.1014741
1.2965547 0.0230835 1.0852917 0.185528 -0.000342 -0.019319 -0.2856293 -2.3070097 -3.8526651 12.0982131 27.3606851 58.9709444 28.3940118
1.2209368 0.0066714 1.0983084 0.165121 0.019628 -0.020413 -0.1059275 -1.7948671 -3.4583216 8.6919295 24.6544913 61.4043905 28.9567935
1.1427953 -0.0089097 1.1066773 0.145079 0.037946 -0.020505 0.0271105 -1.8309132 -4.0908868 5.6153801 21.4343217 62.5008455 29.1973632
1.0643676 -0.0236019 1.1109167 0.125743 0.053841 -0.019307 0.2669682 -2.6368113 -6.9282309 2.7877185 18.1086039 62.5228716 29.7092199
1.7923374 -0.6897141 0.6982209 -0.350776 -0.124887 -0.004117 -2.0037146 5.8086025 -0.9355889 42.6752643 -57.8717230 11.1628016 22.2581574
1.8075486 -0.6643807 0.7765030 -0.330137 -0.136884 -0.007275 -1.7808765 4.4850618 -1.5762150 45.1005484 -54.6698689 22.5194761 21.7635294
1.8091128 -0.6283165 0.8533478 -0.300566 -0.143719 -0.009571 -1.2511483 2.7837666 -1.6196266 45.9393306 -49.6566469 33.7973591 21.3648554
1.7967107 -0.5824446 0.9252967 -0.262547 -0.144193 -0.010148 -0.7616004 1.5064580 -1.3180785 44.9033068 -43.2311372 43.9292441 21.2844433
1.7705543 -0.5287023 0.9892407 -0.218304 -0.137699 -0.008995 -0.4439612 0.7777098 -0.9905238 42.3289351 -35.7832628 52.4415751 21.4173058
1.7316707 -0.4696350 1.0428985 -0.170259 -0.124195 -0.006703 -0.3230471 0.4918612 -0.9187354 38.4428961 -27.9114870 58.9542466 21.8804059
1.6816807 -0.4079535 1.0850924 -0.121239 -0.104867 -0.004281 -0.3317431 0.4186748 -1.2075281 33.7579265 -20.0714206 63.4885100 22.5543530
1.6224642 -0.3461552 1.1157274 -0.073507 -0.081537 -0.002685 -0.3406973 0.3163779 -1.6137550 28.7797105 -12.7102178 66.3278849 23.4097489
1.5558598 -0.2862936 1.1355610 -0.029106 -0.056468 -0.002477 -0.3335608 0.1501470 -2.1198235 23.8481008 -5.9462488 67.7581869 24.3667651
1.4834767 -0.2299026 1.1459116 0.010796 -0.031576 -0.003797 -0.2745436 -0.0888823 -2.4649523 19.1950669 0.0149601 68.1854713 25.3860305
1.4066117 -0.1780183 1.1483743 0.045245 -0.008570 -0.006375 -0.1962786 -0.3514942 -2.7310029 15.0073787 5.2510095 67.9236834 26.3673667
1.3262327 -0.1312522 1.1446150 0.074006 0.011662 -0.009756 -0.1065261 -0.5885069 -2.8107152 11.2983671 9.7100029 67.2591816 27.3130141
1.2429441 -0.0898754 1.1362144 0.097047 0.028638 -0.013396 -0.0246416 -0.7839922 -2.8091991 8.0442212 13.4761390 66.4480791 28.2122298
1.1566854 -0.0539697 1.1246051 0.114408 0.042431 -0.016809 0.0401779 -0.8393599 -2.4840376 5.2740443 16.6227366 65.7211684 28.9724229
1.8768992 -0.6529886 0.7041980 -0.323619 -0.173791 -0.004302 -0.7859244 1.5083559 -0.2957716 55.0781834 -54.2203564 12.4422476 20.1960121
1.8901366 -0.6198757 0.7874617 -0.296233 -0.187054 -0.007995 0.3541587 -0.5857476 0.2544489 57.6080008 -49.5165600 25.1867069 19.4568733
1.8863816 -0.5763776 0.8671875 -0.259234 -0.192063 -0.009640 1.1243394 -1.6137193 1.1908135 57.4659532 -43.2072976 36.9828110 19.3272965
1.8662590 -0.5240620 0.9396737 -0.214957 -0.188520 -0.009267 1.4039889 -1.7339408 2.0021976 55.0528575 -35.5771070 47.1936679 19.3315484
1.8310282 -0.4654689 1.0019354 -0.165638 -0.175892 -0.007230 1.0809898 -1.1157864 1.9979147 50.5469489 -27.3767156 55.1806816 19.9472247
1.7826713 -0.4035012 1.0521757 -0.114915 -0.155567 -0.004488 0.5468780 -0.4401696 1.2916850 44.9123261 -19.1159685 60.8709522 20.6276483
1.7235358 -0.3408960 1.0898941 -0.064997 -0.129471 -0.002378 0.0212545 -0.0111547 0.0641697 38.6327312 -11.3370944 64.4858919 21.7851523
1.6559260 -0.2799074 1.1156771 -0.018506 -0.100414 -0.001606 -0.2907884 0.0436145 -1.1348686 32.3911657 -4.2197925 66.3635280 22.8299426
1.5818111 -0.2222018 1.1308322 0.023464 -0.070844 -0.002584 -0.4176871 -0.1631671 -2.1555777 26.4686178 2.0549069 66.9960370 24.1605511
1.5026827 -0.1688956 1.1370444 0.059738 -0.042871 -0.005076 -0.3831968 -0.4735746 -2.7183058 21.1797040 7.5228228 66.7856648 25.2151179
1.4194897 -0.1206525 1.1361007 0.090349 -0.017636 -0.008708 -0.2956788 -0.8023826 -3.0840616 16.4148771 12.1430073 66.0757506 26.5072577
1.3325397 -0.0777932 1.1297189 0.114635 0.004097 -0.012810 -0.1779464 -1.0448582 -3.1200271 12.3789650 16.0639868 65.1006429 27.3802109
1.2411695 -0.0404575 1.1194465 0.133155 0.022461 -0.016917 -0.0764530 -1.3076936 -3.2838404 8.7540804 19.2069013 63.9384382 28.5115548
1.9552380 -0.6027019 0.7087607 -0.284009 -0.226180 -0.004447 3.7691829 -4.8803185 1.1927109 68.3260748 -47.8367814 13.6819850 17.8279893
1.9635244 -0.5619257 0.7954334 -0.248805 -0.237936 -0.007106 5.5532050 -6.0630094 3.3929327 70.0196913 -41.8040396 27.0674472 17.3439216
1.9521824 -0.5116527 0.8765335 -0.204814 -0.238872 -0.007805 5.9609852 -5.4260086 5.4211204 68.3520878 -34.2600298 39.1989193 17.2976710
1.9226617 -0.4542694 0.9480933 -0.155099 -0.228429 -0.006132 4.9166606 -3.5875613 6.0685777 63.7961910 -25.9833959 49.0140689 17.8248471
1.8773191 -0.3927838 1.0074335 -0.103123 -0.208047 -0.003405 3.1210776 -1.6585474 5.0238163 57.2656866 -17.4490764 56.3125955 18.7432124
1.8190651 -0.3301453 1.0534313 -0.051844 -0.179750 -0.000899 1.4061768 -0.4133303 2.9046974 49.6956556 -9.4085585 61.1011118 19.9974683
1.7508099 -0.2687961 1.0863465 -0.003903 -0.146976 0.000331 0.1985916 0.0023006 0.5252982 41.9390652 -2.0144441 63.7650505 21.3803931
1.6750379 -0.2105216 1.1074043 0.039295 -0.112684 -0.000314 -0.4014491 -0.1720353 -1.3711096 34.5861849 4.4532467 64.8609404 22.8415302
1.5935877 -0.1565033 1.1183475 0.076869 -0.079578 -0.002775 -0.5876227 -0.6051175 -2.6415449 27.9057886 10.0595161 64.8886189 24.2694039
1.5075778 -0.1074511 1.1211016 0.108326 -0.049232 -0.006613 -0.5344871 -1.0451488 -3.2725571 22.0681099 14.7972492 64.2605256 25.5998225
1.4173549 -0.0637486 1.1175492 0.133641 -0.022627 -0.011202 -0.4000325 -1.4116915 -3.5457823 16.9569018 18.8023506 63.2848292 26.8463883
1.3223621 -0.0256117 1.1094257 0.152646 0.000284 -0.015999 -0.2456496 -1.6557285 -3.5580149 12.5512201 22.0367739 62.2324298 27.9659555
2.0232606 -0.5378816 0.7120259 -0.228836 -0.277539 -0.003516 12.4812310 -10.6329456 3.4445849 80.7746129 -38.6214519 14.4298914 15.5090907
2.0236871 -0.4903162 0.8003249 -0.186094 -0.284813 -0.005029 14.0069644 -9.5727857 7.5521890 80.8143822 -31.4591475 28.1865590 15.1333882
2.0025983 -0.4350001 0.8809254 -0.136718 -0.278333 -0.003910 12.2637807 -6.3722733 9.9385725 76.8982584 -23.3595957 39.9798060 15.6685807
1.9624456 -0.3749363 0.9499252 -0.084419 -0.259231 -0.001309 8.5766570 -2.9466913 9.5106080 70.0290647 -14.8939010 49.2350372 16.5578730
1.9066337 -0.3132212 1.0052243 -0.032733 -0.229749 0.001508 4.5831804 -0.6305956 6.6724098 61.3811324 -6.8083238 55.6455007 18.0874999
1.8387634 -0.2524585 1.0464847 0.015594 -0.193938 0.003151 1.6665140 0.2006871 3.1299972 52.2289624 0.6667347 59.5596812 19.6164341
1.7619828 -0.1945354 1.0746683 0.059127 -0.155350 0.002767 -0.0344679 -0.0158940 -0.0832158 43.3000422 7.1939366 61.4853748 21.4537991
1.6786537 -0.1406796 1.0914936 0.096752 -0.117348 0.000400 -0.6989366 -0.6509785 -2.1845661 35.2380545 12.8340988 62.0139334 22.9825816
1.5902530 -0.0916305 1.0989850 0.128435 -0.082038 -0.003674 -0.8311505 -1.3390259 -3.4256573 28.0845561 17.5803352 61.6822349 24.6876080
1.4973895 -0.0478118 1.0991956 0.153741 -0.050583 -0.008738 -0.6840532 -1.8169933 -3.8484834 21.9642633 21.5454101 60.8825808 25.9799646
1.3998283 -0.0094879 1.0940485 0.172863 -0.023404 -0.014157 -0.4871076 -2.1594623 -3.9843532 16.6580329 24.7881925 59.9040507 27.4035378
2.0758871 -0.4592902 0.7136482 -0.157400 -0.321568 -0.001945 23.8227007 -12.1269314 5.9173633 90.3588156 -26.9435039 14.6773409 13.5021653
2.0660377 -0.4069461 0.8015748 -0.109314 -0.320948 -0.001358 22.6440182 -8.1118132 11.1115726 88.0759783 -19.3327877 28.1248438 13.6976865
2.0338423 -0.3493603 0.8797677 -0.057746 -0.304945 0.001072 17.0603437 -3.3996541 12.7021228 81.7555487 -11.2862283 39.3698895 14.6575329
1.9828234 -0.2896660 0.9448077 -0.006790 -0.276114 0.004206 10.1203931 -0.1700831 10.3942575 72.7717927 -3.4056903 47.7471360 16.2284320
1.9171519 -0.2305675 0.9953706 0.040913 -0.238680 0.006208 4.4212357 0.9161274 6.0033629 62.4828088 3.9569310 53.3341155 18.0804498
1.8407020 -0.1740250 1.0318603 0.083438 -0.196819 0.006261 0.9313733 0.4624169 1.6414322 52.2365751 10.3713304 56.4780103 20.0441261
1.7564955 -0.1212938 1.0557745 0.120278 -0.154750 0.004020 -0.6825247 -0.6040178 -1.5547236 42.7073888 15.9291315 57.8780007 21.9575696
1.6665333 -0.0731202 1.0691406 0.150973 -0.114893 -0.000161 -1.1388659 -1.6238863 -3.3771935 34.3320332 20.5455722 58.1249751 23.7556667
1.5718383 -0.0299438 1.0741294 0.175652 -0.079156 -0.005559 -1.0561666 -2.3365961 -4.1581176 27.0823790 24.4459723 57.7119314 25.3686066
1.4725771 0.0079520 1.0728373 0.194162 -0.047952 -0.011508 -0.7931666 -2.7218389 -4.3046677 20.9109549 27.6158120 56.9763944 26.8285158
2.1081937 -0.3701458 0.7132725 -0.072850 -0.351126 0.000302 32.5989035 -7.2135123 7.4903462 95.4355548 -14.0908549 14.3415170 12.2634069
2.0867782 -0.3160612 0.7987742 -0.023146 -0.340295 0.002719 26.7927522 -2.0404561 12.2885741 90.7513471 -6.7087876 27.1375121 12.9732938
2.0434596 -0.2595056 0.8729312 0.026092 -0.314398 0.006121 17.2554578 1.5191035 12.1164029 82.3582132 0.7356799 37.4726680 14.6042055
1.9825632 -0.2031784 0.9330995 0.071862 -0.277359 0.008717 8.4963990 2.4353808 8.2951621 71.8269214 7.7192273 44.9647189 16.4725748
1.9085351 -0.1490614 0.9787348 0.112401 -0.234177 0.009352 2.5743530 1.3876583 3.3465947 60.7005162 13.9090815 49.7509495 18.7400725
1.8250903 -0.0984135 1.0108127 0.147148 -0.189303 0.007497 -0.3785206 -0.3299716 -0.6429491 50.0637774 19.2184424 52.3764159 20.7466525
1.7348632 -0.0519741 1.0311622 0.175994 -0.146145 0.003457 -1.4485242 -1.9176179 -3.2019812 40.5270605 23.6443277 53.4838895 22.8503054
1.6394120 -0.0101796 1.0419654 0.199036 -0.106785 -0.002105 -1.4861159 -2.9104475 -4.3106533 32.2829233 27.3487648 53.6750010 24.5279560
1.5393705 0.0266799 1.0454352 0.216370 -0.072172 -0.008425 -1.1972354 -3.4592077 -4.6589821 25.2441767 30.3562053 53.3749848 26.2668779
2.1170142 -0.2759436 0.7107731 0.017809 -0.360999 0.002482 33.2259368 1.3322649 7.2355278 95.5193396 -1.3427680 13.5968762 12.1683495
2.0843063 -0.2234806 0.7920511 0.064423 -0.340221 0.006295 23.3851200 4.4232298 10.2629373 88.7574811 5.4385545 25.3847731 13.5080435
2.0312281 -0.1709094 0.8610487 0.107479 -0.306408 0.009624 12.6132227 4.6381904 8.5466134 79.0027840 11.9515076 34.7059438 15.4628625
1.9623674 -0.1201524 0.9159545 0.145143 -0.264323 0.011184 4.5163285 2.6748028 4.2876409 67.7845494 17.7603615 41.2282889 17.6876665
1.8819609 -0.0724391 0.9568496 0.177120 -0.218916 0.010075 0.0344073 0.0304332 0.0438077 56.5308120 22.7443741 45.3561448 19.9269838
1.7932837 -0.0284887 0.9850714 0.203220 -0.173977 0.006576 -1.7252058 -2.1998873 -2.8908370 46.2319699 26.8727604 47.6275059 22.0706651
1.6985060 0.0112702 1.0026168 0.224072 -0.132293 0.001180 -1.9962702 -3.6146772 -4.3881322 37.1301533 30.3179408 48.6866453 24.0110952
1.5988036 0.0465454 1.0117113 0.239513 -0.095145 -0.005181 -1.6655533 -4.2780687 -4.8517312 29.3945911 33.1342835 48.9866598 25.7381360
2.1021330 -0.1830817 0.7063784 0.105476 -0.350604 0.004130 25.1611029 7.4458146 5.3063557 91.0689557 10.5249196 12.5468044 13.2071781
2.0597908 -0.1349769 0.7821387 0.145321 -0.322407 0.008295 14.8125074 6.7778112 6.3511126 82.9523629 16.3882875 23.1783955 14.8131582
1.9991406 -0.0882833 0.8453881 0.179800 -0.284276 0.010986 5.8242252 3.8426688 3.8862381 72.5852626 21.7029797 31.3293302 17.0171473
1.9245218 -0.0441492 0.8950185 0.208410 -0.240750 0.011079 0.3674146 0.3384022 0.3460230 61.5735349 26.2396142 37.0304052 19.1595962
1.8396740 -0.0032584 0.9315299 0.231537 -0.196328 0.008560 -2.0569593 -2.6054422 -2.6167872 50.9847304 30.0541385 40.6507471 21.4589157
1.7473719 0.0339700 0.9564610 0.249609 -0.153894 0.003768 -2.5178023 -4.3636037 -4.2478597 41.4821112 33.2232259 42.7928616 23.3541686
1.6493894 0.0672344 0.9718713 0.262959 -0.115523 -0.002266 -2.1954611 -5.2190746 -4.9027612 33.1996319 35.8322443 43.8998712 25.2981778
2.0661899 -0.0969928 0.7006025 0.182548 -0.324141 0.004759 13.4580624 7.5795744 2.8020448 83.1633964 20.9481055 11.3091978 15.0682541
2.0165205 -0.0547746 0.7701209 0.213853 -0.292260 0.008599 5.6008222 4.1785614 2.3898594 74.5249114 25.6476690 20.6465909 16.9167361
1.9505490 -0.0146175 0.8274470 0.239518 -0.253492 0.010120 0.1517994 0.1490714 0.1015417 64.4722119 29.7637767 27.7577415 19.0022726
1.8720856 0.0228664 0.8719715 0.259630 -0.211723 0.008958 -2.4723919 -3.1962569 -2.3506844 54.3306915 33.1973161 32.7565407 21.1175675
1.7843454 0.0572686 0.9044579 0.275086 -0.170557 0.005264 -3.0991851 -5.2945566 -4.0089014 44.7808939 36.0576303 36.0503816 23.1366642
1.6896989 0.0882658 0.9265591 0.286053 -0.132248 -0.000059 -2.7395543 -6.2271783 -4.7373330 36.3438792 38.4168040 38.0820081 24.9845690
2.0134399 -0.0209736 0.6940545 0.244956 -0.288109 0.004529 3.5756303 3.0649259 0.7475691 73.3162783 29.4300488 9.9692830 17.3737423
1.9586306 0.0150159 0.7570847 0.267892 -0.255887 0.007323 -0.7332015 -0.7849318 -0.3164237 65.0240497 32.9958105 18.1354977 19.0308564
1.8890930 0.0489242 0.8085497 0.285636 -0.219143 0.007734 -3.0914695 -4.1805865 -2.1055841 55.9221734 36.0640169 24.3208888 21.0775608
1.8081161 0.0803841 0.8481669 0.298649 -0.181016 0.005453 -3.6525662 -6.3129612 -3.5592303 46.9579462 38.6223930 28.7475531 22.8824865
1.7185498 0.1090330 0.8768974 0.307721 -0.144462 0.001251 -3.2678003 -7.3032453 -4.3625491 38.6519786 40.7962665 31.7374985 24.7973691
1.9483584 0.0438417 0.6872674 0.292261 -0.248745 0.003632 -2.1867016 -2.6077886 -0.4658910 63.0966988 35.9866390 8.6753516 19.7540489
1.8900127 0.0740694 0.7438728 0.308104 -0.218537 0.005336 -3.8060512 -5.5088570 -1.6843896 55.6308727 38.6783615 15.7288612 21.4018891
1.8179534 0.1025485 0.7896061 0.319632 -0.185306 0.004533 -4.1826631 -7.4875834 -2.9384293 47.6162248 40.9772842 21.1355587 23.1151341
1.7352076 0.1288894 0.8244335 0.327053 -0.151717 0.001592 -3.7115639 -8.3581567 -3.7519519 39.9314825 42.9237061 25.0611137 24.8206603
1.8748004 0.0978195 0.6806137 0.326188 -0.210491 0.002391 -4.4113299 -6.9891622 -0.9696585 53.5321954 40.9211776 7.5340103 21.9869687
1.8137620 0.1231850 0.7309664 0.336446 -0.183240 0.002833 -4.5037803 -8.5341180 -2.0661768 47.0629565 42.9843830 13.6795010 23.3291836
1.7395308 0.1472540 0.7709761 0.343129 -0.154015 0.001244 -4.0169918 -9.3158860 -2.9369961 40.1739400 44.7315388 18.3343692 24.9830079
1.7957566 0.1421096 0.6742814 0.349374 -0.175814 0.001189 -4.6782606 -9.5859929 -1.0687633 45.0010910 44.6322273 6.4690175 24.0390528
1.7319990 0.1637106 0.7183479 0.355480 -0.151740 0.000577 -4.1015264 -9.9910527 -1.9600887 39.4267544 46.2914669 11.7439242 25.3412937
1.7133785 0.1781484 0.6681359 0.363971 -0.145400 -0.000108 -3.8612273 -10.0692992 -0.9171698 37.8967792 47.6827991 5.6710505 25.7819230
1.6829289 0.1913095 0.6212299 0.369090 -0.134858 -0.000000 -4.3121181 -12.3607976 -0.0000002 34.9945508 47.4557578 0.0000008 26.4457164
1.7633960 0.1598386 0.6212299 0.357940 -0.163208 -0.000000 -4.0833106 -9.2654674 -0.0000001 42.1239692 46.3347724 0.0000008 24.6403404
1.8435372 0.1202661 0.6212299 0.339647 -0.195849 -0.000000 -4.7372575 -8.4166635 -0.0000001 49.9657912 42.9061657 0.0000004 22.9087096
1.9201353 0.0714231 0.6212299 0.311577 -0.232983 -0.000000 -3.5118489 -4.7699177 -0.0000000 59.1539994 38.6331566 0.0000005 20.6130451
1.9902356 0.0120844 0.6212299 0.271220 -0.272793 -0.000000 0.5796016 0.5806356 0.0000000 69.3317525 32.9047039 0.0000002 18.3560411
2.0502176 -0.0585723 0.6212299 0.216255 -0.311840 -0.000000 9.0998121 6.3047099 0.0000000 79.7829608 25.3562415 0.0000000 15.8426374
2.0957176 -0.1402708 0.6212299 0.145820 -0.344675 -0.000000 21.1733800 8.8352878 0.0000000 89.0337285 15.7839194 0.0000001 13.7628977
2.1220832 -0.2308318 0.6212299 0.061930 -0.364310 -0.000000 32.7294538 5.2572992 0.0000001 95.5787805 4.4772548 0.0000000 12.1135316
2.1255484 -0.3257433 0.6212299 -0.029295 -0.365017 -0.000000 37.0583239 -3.4359898 0.0000002 97.9667623 -7.9794921 0.0000003 11.7212698
2.1047485 -0.4187473 0.6212299 -0.118894 -0.344690 -0.000000 31.4933030 -11.3653834 0.0000002 95.4526267 -20.9993477 0.0000004 12.3392704
2.0615233 -0.5035355 0.6212299 -0.198209 -0.306591 -0.000000 19.7203170 -13.1573011 0.0000002 87.9337037 -33.5461300 0.0000006 14.1409960
2.0003046 -0.5755745 0.6212299 -0.261828 -0.257321 -0.000000 8.4786312 -8.8630690 0.0000001 76.4733030 -44.2370776 0.0000009 16.3396222
1.9265783 -0.6328773 0.6212299 -0.309102 -0.204539 -0.000000 1.3356299 -2.0706427 0.0000000 63.2391218 -51.9687066 0.0000009 18.8363629
1.8455724 -0.6756239 0.6212299 -0.341539 -0.153490 -0.000000 -1.6580600 3.7858114 -0.0000001 50.1281680 -56.7825257 0.0000011 20.9447622
1.7622867 -0.7051394 0.6212299 -0.362963 -0.106827 -0.000000 -2.5029941 8.7591018 -0.0000001 38.5270105 -60.0381202 0.0000009 23.0883639
1.7032553 -0.7152322 0.5536650 -0.367976 -0.081088 0.002796 -2.3537978 11.0287313 1.3703868 31.3570291 -59.4601266 -8.7683028 24.1801976
1.7183736 -0.6970950 0.4812843 -0.353578 -0.090657 0.005537 -1.9144417 7.7884475 2.2218368 33.7569063 -57.6973852 -19.4203596 23.5876370
1.7236552 -0.6682096 0.4078139 -0.330246 -0.097329 0.007913 -1.6992163 6.1270187 2.8855119 34.7771699 -54.0112284 -29.8465843 23.3522763
1.7174101 -0.6291786 0.3371562 -0.299089 -0.099981 0.008932 -1.3782128 4.4737642 3.1140681 34.8150634 -48.8426919 -39.7203944 22.9800666
1.6990147 -0.5813468 0.2724568 -0.260523 -0.097419 0.008536 -1.0560537 3.1215273 3.0649365 33.4648085 -42.4485603 -48.4094656 23.0502273
1.6687064 -0.5267561 0.2162393 -0.216928 -0.089233 0.006900 -0.7465566 2.0208817 2.7627741 31.1054747 -35.3400143 -55.5729898 23.1021300
1.6273974 -0.4678287 0.1701479 -0.170443 -0.075690 0.004722 -0.5365206 1.3257023 2.5585310 27.8585563 -27.9020172 -61.0079871 23.5843037
1.5764307 -0.4070404 0.1348683 -0.123750 -0.057892 0.002787 -0.3802626 0.8407563 2.3999307 24.1783159 -20.5989598 -64.7893272 24.0217710
1.5173240 -0.3466369 0.1102122 -0.078501 -0.037456 0.001861 -0.2776132 0.5173400 2.4316934 20.2221168 -13.7134215 -67.1308193 24.8652535
1.4515706 -0.2884645 0.0953150 -0.036804 -0.016257 0.002248 -0.1852003 0.2368579 2.4503088 16.4214745 -7.3958585 -68.3396792 25.5065810
1.3805214 -0.2339044 0.0888822 0.000557 0.004157 0.003939 -0.1077113 -0.0080050 2.5678073 12.7920387 -1.7650055 -68.7076591 26.4796590
1.3053544 -0.1838892 0.0894031 0.032604 0.022583 0.006608 -0.0329993 -0.2314422 2.5809252 9.5451627 3.1481293 -68.5271648 27.1672777
1.2271365 -0.1389752 0.0953248 0.059243 0.038220 0.009803 0.0336313 -0.4557525 2.7650498 6.6446532 7.3880910 -67.9311434 28.0995583
1.1469511 -0.0994272 0.1051454 0.080229 0.050819 0.013053 0.0878275 -0.6088574 2.6556527 4.2497208 10.8922531 -67.0965731 28.6434736
1.0666683 -0.0655146 0.1173517 0.096301 0.060288 0.016040 0.2312198 -1.3004609 4.5591559 1.9792264 14.0056142 -67.0730207 29.5021655
1.7133785 0.1781484 0.5743239 0.363971 -0.145400 0.000108 -3.8612276 -10.0692999 0.9171696 37.8967781 47.6827989 -5.6710487 25.7819230
1.7319990 0.1637106 0.5241118 0.355480 -0.151740 -0.000577 -4.1015266 -9.9910535 1.9600886 39.4267536 46.2914665 -11.7439229 25.3412939
1.7395308 0.1472540 0.4714837 0.343129 -0.154015 -0.001244 -4.0169915 -9.3158856 2.9369958 40.1739395 44.7315399 -18.3343683 24.9830079
1.7352076 0.1288894 0.4180263 0.327053 -0.151717 -0.001592 -3.7115642 -8.3581576 3.7519521 39.9314814 42.9237061 -25.0611124 24.8206606
1.7185498 0.1090330 0.3655624 0.307721 -0.144462 -0.001251 -3.2678001 -7.3032452 4.3625488 38.6519782 40.7962677 -31.7374979 24.7973692
1.6896989 0.0882658 0.3159006 0.286053 -0.132248 0.000059 -2.7395542 -6.2271785 4.7373329 36.3438789 38.4168050 -38.0820072 24.9845693
1.6493894 0.0672344 0.2705884 0.262959 -0.115523 0.002266 -2.1954611 -5.2190747 4.9027610 33.1996317 35.8322453 -43.8998705 25.2981778
1.5988036 0.0465454 0.2307485 0.239513 -0.095145 0.005181 -1.6655534 -4.2780691 4.8517314 29.3945911 33.1342842 -48.9866588 25.7381362
1.5393705 0.0266799 0.1970246 0.216370 -0.072172 0.008425 -1.1972353 -3.4592074 4.6589816 25.2441767 30.3562063 -53.3749849 26.2668779
1.4725771 0.0079520 0.1696224 0.194162 -0.047952 0.011508 -0.7931667 -2.7218396 4.3046686 20.9109548 27.6158119 -56.9763931 26.8285160
1.3998283 -0.0094879 0.1484112 0.172863 -0.023404 0.014157 -0.4871076 -2.1594624 3.9843533 16.6580327 24.7881928 -59.9040507 27.4035379
1.3223621 -0.0256117 0.1330340 0.152646 0.000284 0.015999 -0.2456495 -1.6557282 3.5580142 12.5512203 22.0367747 -62.2324304 27.9659556
1.2411695 -0.0404575 0.1230132 0.133155 0.022461 0.016917 -0.0764530 -1.3076943 3.2838421 8.7540796 19.2069011 -63.9384366 28.5115550
1.1566854 -0.0539697 0.1178546 0.114408 0.042431 0.016809 0.0401779 -0.8393592 2.4840353 5.2740446 16.6227372 -65.7211714 28.9724229
1.7957566 0.1421096 0.5681784 0.349374 -0.175814 -0.001189 -4.6782610 -9.5859940 1.0687633 45.0010906 44.6322265 -6.4690160 24.0390529
1.8137620 0.1231850 0.5114933 0.336446 -0.183240 -0.002833 -4.5037799 -8.5341175 2.0661765 47.0629563 42.9843842 -13.6795001 23.3291837
1.8179534 0.1025485 0.4528537 0.319632 -0.185306 -0.004533 -4.1826638 -7.4875848 2.9384298 47.6162236 40.9772835 -21.1355574 23.1151344
1.8081161 0.0803841 0.3942928 0.298649 -0.181016 -0.005453 -3.6525664 -6.3129618 3.5592305 46.9579456 38.6223933 -28.7475524 22.8824865
1.7843454 0.0572686 0.3380018 0.275086 -0.170557 -0.005264 -3.0991848 -5.2945562 4.0089010 44.7808938 36.0576314 -36.0503814 23.1366645
1.7473719 0.0339700 0.2859987 0.249609 -0.153894 -0.003768 -2.5178027 -4.3636046 4.2478605 41.4821105 33.2232256 -42.7928602 23.3541686
1.6985060 0.0112702 0.2398429 0.224072 -0.132293 -0.001180 -1.9962705 -3.6146778 4.3881328 37.1301528 30.3179410 -48.6866442 24.0110954
1.6394120 -0.0101796 0.2004944 0.199036 -0.106785 0.002105 -1.4861158 -2.9104474 4.3106531 32.2829234 27.3487655 -53.6750011 24.5279560
1.5718383 -0.0299438 0.1683303 0.175652 -0.079156 0.005559 -1.0561666 -2.3365963 4.1581178 27.0823787 24.4459727 -57.7119311 25.3686068
1.4973895 -0.0478118 0.1432641 0.153741 -0.050583 0.008738 -0.6840532 -1.8169932 3.8484832 21.9642633 21.5454101 -60.8825811 25.9799644
1.4173549 -0.0637486 0.1249106 0.133641 -0.022627 0.011202 -0.4000325 -1.4116914 3.5457822 16.9569014 18.8023510 -63.2848294 26.8463885
1.3325397 -0.0777932 0.1127409 0.114635 0.004097 0.012810 -0.1779465 -1.0448584 3.1200276 12.3789650 16.0639861 -65.1006426 27.3802106
1.2429441 -0.0898754 0.1062453 0.097047 0.028638 0.013396 -0.0246416 -0.7839922 2.8091993 8.0442208 13.4761393 -66.4480790 28.2122301
1.8748004 0.0978195 0.5618461 0.326188 -0.210491 -0.002391 -4.4113298 -6.9891620 0.9696584 53.5321950 40.9211785 -7.5340094 21.9869687
1.8900127 0.0740694 0.4985870 0.308104 -0.218537 -0.005336 -3.8060502 -5.5088555 1.6843891 55.6308735 38.6783638 -15.7288611 21.4018893
1.8890930 0.0489242 0.4339101 0.285636 -0.219143 -0.007734 -3.0914707 -4.1805882 2.1055848 55.9221719 36.0640159 -24.3208873 21.0775608
1.8720856 0.0228664 0.3704882 0.259630 -0.211723 -0.008958 -2.4723916 -3.1962566 2.3506841 54.3306918 33.1973173 -32.7565406 21.1175677
1.8396740 -0.0032584 0.3109298 0.231537 -0.196328 -0.008560 -2.0569590 -2.6054419 2.6167868 50.9847306 30.0541395 -40.6507473 21.4589157
1.7932837 -0.0284887 0.2573883 0.203220 -0.173977 -0.006576 -1.7252056 -2.1998871 2.8908367 46.2319701 26.8727612 -47.6275060 22.0706652
1.7348632 -0.0519741 0.2112975 0.175994 -0.146145 -0.003457 -1.4485247 -1.9176185 3.2019822 40.5270599 23.6443277 -53.4838884 22.8503054
1.6665333 -0.0731202 0.1733191 0.150973 -0.114893 0.000161 -1.1388659 -1.6238863 3.3771934 34.3320333 20.5455727 -58.1249752 23.7556669
1.5902530 -0.0916305 0.1434748 0.128435 -0.082038 0.003674 -0.8311505 -1.3390259 3.4256573 28.0845557 17.5803356 -61.6822351 24.6876081
1.5075778 -0.1074511 0.1213582 0.108326 -0.049232 0.006613 -0.5344872 -1.0451490 3.2725576 22.0681098 14.7972491 -64.2605253 25.5998226
1.4194897 -0.1206525 0.1063590 0.090349 -0.017636 0.008708 -0.2956788 -0.8023826 3.0840615 16.4148764 12.1430073 -66.0757511 26.5072579
1.3262327 -0.1312522 0.0978448 0.074006 0.011662 0.009756 -0.1065260 -0.5885069 2.8107149 11.2983671 9.7100028 -67.2591820 27.3130142
1.9483584 0.0438418 0.5551923 0.292261 -0.248745 -0.003632 -2.1867043 -2.6077918 0.4658916 63.0966961 35.9866360 -8.6753504 19.7540491
1.9586306 0.0150159 0.4853750 0.267892 -0.255887 -0.007323 -0.7332013 -0.7849316 0.3164236 65.0240498 32.9958112 -18.1354973 19.0308564
1.9505490 -0.0146175 0.4150128 0.239518 -0.253492 -0.010120 0.1517987 0.1490707 -0.1015413 64.4722113 29.7637764 -27.7577408 19.0022728
1.9245218 -0.0441492 0.3474412 0.208410 -0.240750 -0.011079 0.3674152 0.3384027 -0.3460235 61.5735356 26.2396150 -37.0304055 19.1595962
1.8819609 -0.0724391 0.2856101 0.177120 -0.218916 -0.010075 0.0344074 0.0304332 -0.0438077 56.5308120 22.7443745 -45.3561447 19.9269840
1.8250903 -0.0984135 0.2316470 0.147148 -0.189303 -0.007497 -0.3785204 -0.3299714 0.6429488 50.0637778 19.2184428 -52.3764162 20.7466524
1.7564955 -0.1212938 0.1866853 0.120278 -0.154750 -0.004020 -0.6825246 -0.6040177 1.5547233 42.7073887 15.9291321 -57.8780012 21.9575697
1.6786537 -0.1406796 0.1509662 0.096752 -0.117348 -0.000400 -0.6989362 -0.6509781 2.1845649 35.2380550 12.8340992 -62.0139348 22.9825815
1.5935877 -0.1565033 0.1241122 0.076869 -0.079578 0.002775 -0.5876224 -0.6051173 2.6415438 27.9057884 10.0595165 -64.8886205 24.2694041
1.5026827 -0.1688956 0.1054153 0.059738 -0.042871 0.005076 -0.3831968 -0.4735745 2.7183053 21.1797040 7.5228226 -66.7856655 25.2151177
1.4066117 -0.1780183 0.0940854 0.045245 -0.008570 0.006375 -0.1962786 -0.3514942 2.7310029 15.0073781 5.2510092 -67.9236838 26.3673670
2.0134399 -0.0209736 0.5484053 0.244956 -0.288109 -0.004529 3.5756300 3.0649256 -0.7475691 73.3162779 29.4300487 -9.9692824 17.3737422
2.0165205 -0.0547746 0.4723389 0.213853 -0.292261 -0.008599 5.6008220 4.1785612 -2.3898593 74.5249114 25.6476689 -20.6465905 16.9167362
1.9991406 -0.0882833 0.3970717 0.179800 -0.284276 -0.010986 5.8242244 3.8426683 -3.8862375 72.5852618 21.7029793 -31.3293292 17.0171472
1.9623674 -0.1201524 0.3265052 0.145143 -0.264323 -0.011184 4.5163310 2.6748042 -4.2876431 67.7845521 17.7603630 -41.2282909 17.6876665
1.9085351 -0.1490614 0.2637250 0.112401 -0.234177 -0.009352 2.5743520 1.3876578 -3.3465934 60.7005152 13.9090810 -49.7509480 18.7400725
1.8407020 -0.1740250 0.2105995 0.083438 -0.196819 -0.006261 0.9313738 0.4624171 -1.6414329 52.2365759 10.3713308 -56.4780112 20.0441262
1.7619828 -0.1945354 0.1677914 0.059127 -0.155350 -0.002767 -0.0344680 -0.0158940 0.0832161 43.3000420 7.1939367 -61.4853748 21.4537991