# volRat = 0.650000
# viscRat = 5.000000
# alpha = 0.500000
# shRate = 3.889000
# tnum = 3400
# time = 2.512395
VARIABLES = X, Y, Z, U, V, W, F_B0, F_B1, F_B2, F_0, F_1, F_2, T
ZONE N=2562 E=5120 F=FEPOINT ET=TRIANGLE
1.6223180 0.2070487 0.6212299 0.369791 -0.110932 0.000000 3.7419425 12.5459188 0.0000025 31.5094583 54.1117330 0.0000030 27.1139224
-1.6537395 0.7269439 0.6212299 0.374678 0.056099 -0.000000 -2.0320871 13.8436570 0.0000032 -25.6562707 65.5563419 0.0000023 24.7944732
1.6537395 -0.7269439 0.6212299 -0.374678 -0.056099 0.000000 2.0320870 -13.8436564 0.0000032 25.6562706 -65.5563414 0.0000022 24.7944732
-1.6223180 -0.2070487 0.6212299 -0.369791 0.110932 -0.000000 -3.7419424 -12.5459182 0.0000025 -31.5094583 -54.1117323 0.0000033 27.1139224
0.9786407 -0.0720772 1.1188216 0.083666 0.066627 -0.027692 -1.9869331 7.0401222 29.3879528 -1.1104727 15.4956034 82.5886258 29.4338374
0.9786407 -0.0720772 0.1236381 0.083666 0.066627 0.027692 -1.9869332 7.0402096 -29.3881511 -1.1104875 15.4956516 -82.5888302 29.4338320
-0.9786407 0.0720772 1.1188216 -0.083666 -0.066627 -0.027692 1.9869327 -7.0401204 29.3879461 1.1104726 -15.4956011 82.5886193 29.4338373
-0.9786407 0.0720772 0.1236381 -0.083666 -0.066627 0.027692 1.9869331 -7.0402090 -29.3881495 1.1104875 -15.4956508 -82.5888286 29.4338321
-0.0997010 0.3641490 0.8467903 0.217664 -0.056179 0.008891 -10.1678904 -45.2024690 -27.5397198 2.7301820 15.8053434 14.3977660 32.6693257
0.0997010 -0.3641490 0.8467903 -0.217664 0.056179 0.008891 10.1679367 45.2026697 -27.5396534 -2.7301368 -15.8051512 14.3978079 32.6693264
-0.0997010 0.3641490 0.3956695 0.217664 -0.056179 -0.008891 -10.1679026 -45.2024959 27.5396381 2.7301833 15.8053237 -14.3978483 32.6693317
0.0997010 -0.3641490 0.3956695 -0.217664 0.056179 -0.008891 10.1678857 45.2024057 27.5396052 -2.7302003 -15.8054144 -14.3978849 32.6693313
1.6456468 0.1988498 0.6657903 0.368735 -0.116205 -0.000415 -4.2746532 -13.5426670 -1.0615477 31.7516348 48.3756142 4.8649504 26.9103372
1.6630883 0.1869646 0.7149577 0.362040 -0.121294 -0.000631 -3.6743930 -10.9826831 -1.9731244 33.3223496 47.6977244 11.1268669 26.3754760
1.6718188 0.1718318 0.7670406 0.351313 -0.123412 -0.000645 -3.4436791 -9.8400962 -2.8683456 34.0324074 46.6298797 17.5629524 26.1951655
1.6700039 0.1538575 0.8200087 0.336337 -0.121096 -0.000553 -3.2573666 -9.0456741 -3.7644742 33.9851598 44.7109687 24.0858066 25.8380235
1.6567323 0.1335310 0.8720355 0.317790 -0.115290 -0.001122 -2.8840636 -7.9378054 -4.4021456 33.0442795 42.7074548 30.6545024 25.8865789
1.6318170 0.1115157 0.9213516 0.296123 -0.105134 -0.002368 -2.4423944 -6.8172836 -4.8250484 31.3020754 40.2149673 36.9037881 25.8041325
1.5957061 0.0885918 0.9664316 0.272747 -0.091084 -0.004259 -1.9687605 -5.7256491 -5.0205503 28.7221258 37.4916932 42.6477547 26.1044155
1.5493487 0.0655585 1.0061318 0.248297 -0.073619 -0.006695 -1.4836780 -4.6449216 -4.9395798 25.6313054 34.5691216 47.8037643 26.2689658
1.4940210 0.0431298 1.0397624 0.224067 -0.053873 -0.009300 -1.0642134 -3.7384434 -4.7478034 22.0643802 31.5902335 52.1737305 26.7759540
1.4311522 0.0218590 1.0670754 0.200384 -0.032698 -0.011791 -0.6995065 -2.9203276 -4.3819409 18.4001474 28.5564563 55.8749358 27.0573476
1.3621892 0.0021053 1.0881880 0.177979 -0.011410 -0.013857 -0.4242913 -2.3059129 -4.0615432 14.6571340 25.5741820 58.8261887 27.6639758
1.2885261 -0.0159592 1.1034852 0.156686 0.009202 -0.015125 -0.2101919 -1.7835045 -3.6791767 11.1279619 22.6153405 61.2010532 27.9673385
1.2115300 -0.0323149 1.1135214 0.136747 0.028370 -0.015201 -0.0600568 -1.4950109 -3.6208094 7.7623097 19.6703629 62.8831577 28.5604528
1.1326433 -0.0470516 1.1189586 0.117680 0.045509 -0.014138 0.0734686 -1.4274300 -4.0908005 4.8245125 16.6435588 63.7747650 28.8045236
1.0540825 -0.0602590 1.1205050 0.099877 0.059511 -0.013421 0.3350990 -2.0449472 -7.0707384 2.1339221 13.5858371 63.5059849 29.3530165
1.7645193 -0.6999414 0.6929149 -0.355739 -0.101932 -0.003504 -2.0613631 7.1084766 -1.0400013 38.0681143 -58.6373912 10.2747986 22.8090767
1.7811895 -0.6779930 0.7664620 -0.338264 -0.113688 -0.006260 -2.0150484 6.0174469 -1.9100354 40.5197718 -55.9576430 20.8604379 22.3195834
1.7850467 -0.6463451 0.8395923 -0.312729 -0.120783 -0.008454 -1.6352208 4.3342553 -2.2565078 41.6060965 -51.6981882 31.5613632 21.9155914
1.7755361 -0.6056092 0.9092432 -0.279434 -0.122299 -0.009192 -1.2038311 2.8768422 -2.2183506 41.0068759 -46.0405797 41.3920469 21.7776702
1.7525676 -0.5572834 0.9725075 -0.240040 -0.117547 -0.008307 -0.8569081 1.8632747 -2.0404251 38.9273017 -39.3076758 49.8562827 21.8332883
1.7168403 -0.5034468 1.0270746 -0.196457 -0.106338 -0.006191 -0.6146192 1.2178752 -1.8773452 35.5852623 -32.0920601 56.6147469 22.1802495
1.6696835 -0.4463978 1.0715324 -0.151229 -0.089459 -0.003597 -0.4973617 0.8885192 -1.9665167 31.3740568 -24.7501494 61.5319684 22.7307635
1.6127672 -0.3883188 1.1054184 -0.106356 -0.068416 -0.001410 -0.4025996 0.6261335 -2.1094886 26.7939401 -17.7765882 64.8376260 23.4606257
1.5478133 -0.3310546 1.1290674 -0.063697 -0.045206 -0.000311 -0.3296864 0.4046509 -2.3853749 22.1644503 -11.2667712 66.7640542 24.3031575
1.4763942 -0.2760301 1.1433803 -0.024474 -0.021707 -0.000567 -0.2377845 0.1583404 -2.5495198 17.7551687 -5.4410056 67.6665237 25.2218766
1.3998293 -0.2242676 1.1495830 0.010403 0.000369 -0.002143 -0.1481756 -0.0827720 -2.6982052 13.7383159 -0.2397428 67.8471805 26.1312444
1.3191514 -0.1764539 1.1490521 0.040437 0.019891 -0.004684 -0.0607512 -0.3029144 -2.7139588 10.1983675 4.2857013 67.5447303 27.0141873
1.2350646 -0.1330109 1.1431785 0.065571 0.036240 -0.007696 0.0133089 -0.4906208 -2.6930091 7.0649039 8.1928229 67.0211762 27.8830446
1.1476522 -0.0942144 1.1333060 0.085446 0.049209 -0.010976 0.0631037 -0.5536213 -2.2788244 4.4624206 11.5965821 66.6936826 28.6181421
1.8496395 -0.6684907 0.6990369 -0.333590 -0.147734 -0.003846 -1.5974623 3.5885423 -0.6335288 49.8898102 -55.9930203 11.5817874 20.8790054
1.8650063 -0.6393036 0.7780410 -0.310117 -0.161027 -0.007381 -0.7641951 1.4851338 -0.5758343 52.6545992 -51.9904147 23.6536200 20.1376310
1.8642545 -0.6004907 0.8548949 -0.277644 -0.167106 -0.009276 -0.0644125 0.1100350 -0.0714092 53.0045415 -46.4139183 35.0884919 19.9512447
1.8476381 -0.5532314 0.9261905 -0.238112 -0.165524 -0.009301 0.3560199 -0.5370063 0.5317994 51.2162275 -39.4474073 45.2238209 19.8457359
1.8159897 -0.4996087 0.9889730 -0.193166 -0.155528 -0.007614 0.3616175 -0.4779014 0.7025230 47.4110018 -31.8432347 53.4461962 20.3239402
1.7708967 -0.4421175 1.0412262 -0.146216 -0.138080 -0.004854 0.1254378 -0.1413356 0.3135636 42.3403047 -24.0037167 59.4796664 20.8490876
1.7144191 -0.3831916 1.0820693 -0.099092 -0.114674 -0.002287 -0.1555670 0.1396236 -0.5025869 36.5272752 -16.5435135 63.5625820 21.8597535
1.6487019 -0.3248848 1.1116419 -0.054367 -0.087802 -0.000647 -0.3219662 0.1912835 -1.3670174 30.6338773 -9.6328069 65.9235381 22.7662900
1.5756662 -0.2687452 1.1308110 -0.013088 -0.059758 -0.000531 -0.3759809 0.0548634 -2.1630857 24.9452996 -3.4698593 67.0218743 23.9957315
1.4968336 -0.2158409 1.1408673 0.023471 -0.032769 -0.001887 -0.3167177 -0.1887210 -2.5992108 19.8337328 1.9756354 67.2248798 24.9555027
1.4132356 -0.1668543 1.1432730 0.055312 -0.008135 -0.004553 -0.2267695 -0.4595068 -2.9108967 15.1918789 6.6574882 66.8659623 26.1973260
1.3253030 -0.1221919 1.1395081 0.081562 0.013100 -0.007946 -0.1185174 -0.6770923 -2.9133485 11.2870782 10.7199850 66.1844585 27.0202560
1.2325458 -0.0821264 1.1309708 0.102697 0.030781 -0.011652 -0.0276789 -0.9004845 -3.0344549 7.7863330 14.1288692 65.2942396 28.1418127
1.9301512 -0.6241498 0.7041422 -0.300308 -0.198059 -0.004289 1.6122398 -2.4410678 0.5299801 63.0999497 -50.9088939 12.9530720 18.6162657
1.9413892 -0.5874785 0.7874324 -0.269437 -0.210810 -0.007222 3.2056848 -4.1437936 2.0296384 65.3512316 -45.5494450 25.9380780 18.0666108
1.9337627 -0.5417117 0.8668256 -0.229955 -0.213880 -0.008389 3.9175234 -4.3334561 3.6910974 64.4361748 -38.5996170 37.9782078 17.9092272
1.9081941 -0.4888078 0.9384830 -0.184426 -0.206466 -0.007208 3.4765270 -3.2414753 4.4548415 60.6178173 -30.7439367 47.9661526 18.2589999
1.8665233 -0.4313902 0.9995443 -0.135870 -0.189326 -0.004656 2.3220966 -1.7472235 3.8985086 54.7596161 -22.5390465 55.6248820 18.9985284
1.8112724 -0.3721372 1.0484948 -0.087107 -0.164147 -0.001832 1.0827222 -0.5905441 2.3508851 47.7112792 -14.6983772 60.8593612 20.0744960
1.7451387 -0.3133247 1.0851219 -0.040660 -0.133798 0.000167 0.1437490 -0.0407078 0.4043269 40.2910818 -7.4393740 63.9908300 21.3137641
1.6705451 -0.2566361 1.1101886 0.001945 -0.101197 0.000635 -0.3358772 -0.0262206 -1.2401271 33.1583156 -1.0227962 65.5113746 22.6515712
1.5893709 -0.2031875 1.1250247 0.039866 -0.069016 -0.000651 -0.4839094 -0.2979513 -2.4066478 26.5972419 4.5783150 65.9201865 23.9956957
1.5028372 -0.1536608 1.1312057 0.072462 -0.039125 -0.003398 -0.4307279 -0.6410672 -3.0158961 20.8518570 9.3774901 65.5946072 25.2621867
1.4114370 -0.1084608 1.1303366 0.099705 -0.012782 -0.007159 -0.3108339 -0.9620849 -3.3160520 15.8065706 13.5058831 64.8571472 26.4737899
1.3148055 -0.0678780 1.1239560 0.121204 0.009754 -0.011330 -0.1778892 -1.2203416 -3.4153221 11.5088723 16.9190246 63.9034561 27.5700366
2.0023819 -0.5654491 0.7083530 -0.252454 -0.249574 -0.003764 8.8218556 -8.9294180 2.5077930 76.2974902 -42.9552555 14.0049571 16.2920113
2.0066025 -0.5216495 0.7945300 -0.213860 -0.259149 -0.005781 10.7174790 -8.9524866 5.9472354 77.1613723 -36.2218664 27.6574943 15.7772499
1.9897330 -0.4700936 0.8748339 -0.168148 -0.255949 -0.005343 10.0157706 -6.7393697 8.3635253 74.1312370 -28.4239020 39.6611035 16.1198245
1.9535852 -0.4134371 0.9452574 -0.118752 -0.240513 -0.003094 7.4119803 -3.7601580 8.4974025 67.9829942 -20.1149494 49.2810159 16.8001715
1.9010621 -0.3545574 1.0033176 -0.068972 -0.214430 -0.000154 4.1929102 -1.3457451 6.3481677 59.8247517 -12.0933397 56.1339322 18.1324944
1.8354878 -0.2959491 1.0481816 -0.021705 -0.181251 0.002181 1.6712730 -0.1537954 3.2936294 50.9726508 -4.6548373 60.4825500 19.5006970
1.7599356 -0.2394352 1.0803277 0.021580 -0.144356 0.002840 0.1141336 0.0240251 0.2928024 42.1719873 1.8827292 62.7949843 21.2210768
1.6768220 -0.1861805 1.1010499 0.059682 -0.107153 0.001658 -0.5272442 -0.3352965 -1.7814040 34.1461303 7.5405565 63.6473381 22.6625948
1.5877487 -0.1368606 1.1120092 0.092532 -0.072060 -0.001322 -0.6746365 -0.8583215 -3.0757569 26.9889913 12.3527192 63.5788044 24.3162505
1.4934894 -0.0918590 1.1149559 0.119643 -0.040534 -0.005487 -0.5556726 -1.2782516 -3.5683253 20.8750583 16.4161984 62.9664835 25.5706329
1.3940089 -0.0514494 1.1115797 0.141159 -0.013407 -0.010288 -0.3872616 -1.6166133 -3.7859137 15.5960938 19.8185302 62.0889860 26.9866441
2.0614490 -0.4922574 0.7113139 -0.188091 -0.296852 -0.002530 19.8328074 -12.6002744 5.0507520 87.5659616 -32.0752005 14.6260256 14.1126349
2.0559772 -0.4427443 0.7986620 -0.143008 -0.299755 -0.002729 20.0060773 -9.6453054 10.0706260 86.2059683 -24.5620000 28.3373458 14.0976200
2.0280154 -0.3876767 0.8780386 -0.093574 -0.287667 -0.000794 15.9263043 -5.2317980 12.1942124 80.5984617 -16.5026653 39.9859526 14.8265766
1.9804755 -0.3300370 0.9456791 -0.043749 -0.262383 0.002301 10.0061884 -1.5897174 10.6180508 72.0418681 -8.5518717 48.8483091 16.1851665
1.9171854 -0.2724926 0.9997520 0.003573 -0.227585 0.004842 4.7311227 0.2117255 6.6856359 61.9402073 -1.1280468 54.8852010 17.8858426
1.8419327 -0.2169939 1.0401583 0.046360 -0.187317 0.005835 1.3064177 0.4001874 2.4208808 51.6743462 5.3690771 58.4033833 19.7338429
1.7578135 -0.1647501 1.0679628 0.083942 -0.145797 0.004683 -0.3621855 -0.2395026 -0.8795688 42.0489963 10.9784920 60.1222313 21.5817528
1.6669780 -0.1164203 1.0848269 0.115849 -0.105813 0.001572 -0.8970323 -1.0470841 -2.8874921 33.5331483 15.6568096 60.5710474 23.3346837
1.5706292 -0.0723487 1.0926080 0.142233 -0.069601 -0.002989 -0.8797785 -1.6972065 -3.8477265 26.1599253 19.6159871 60.2838974 24.9314731
1.4691334 -0.0327593 1.0931475 0.162914 -0.038008 -0.008327 -0.6616803 -2.0947871 -4.1111354 19.9403701 22.9000770 59.5997448 26.3827784
2.1020574 -0.4066792 0.7125722 -0.108533 -0.332684 -0.000520 30.6303050 -10.0511906 7.2034774 94.7453459 -19.2645623 14.6572909 12.5162201
2.0850187 -0.3540528 0.7991292 -0.059998 -0.325906 0.001262 26.5834978 -4.9068855 12.5021816 90.7780814 -11.7258231 27.9567476 12.9813322
2.0452811 -0.2985978 0.8758134 -0.010959 -0.303532 0.004444 18.1074321 -0.5151068 13.0872100 82.7618106 -4.1220739 38.8795946 14.4150627
1.9867654 -0.2430575 0.9394742 0.035260 -0.268990 0.007436 9.5692483 1.4902057 9.6749231 72.2800040 3.0191322 46.9113115 16.1374314
1.9138207 -0.1894652 0.9890423 0.076611 -0.227056 0.008856 3.4081334 1.3208166 4.6281666 60.9319944 9.3261499 52.1095801 18.3191161
1.8302616 -0.1390599 1.0250500 0.112393 -0.182345 0.007981 0.1772889 0.1231264 0.3182720 50.0147873 14.7119485 55.0459314 20.2809512
1.7389010 -0.0924807 1.0489617 0.142533 -0.138631 0.004854 -1.1009382 -1.2313446 -2.6109654 40.1547398 19.1897804 56.3421408 22.3675454
1.6414930 -0.0500239 1.0626489 0.167142 -0.098332 0.000040 -1.2580297 -2.1753644 -3.9886461 31.6579741 22.9321792 56.6382430 24.0424785
1.5388680 -0.0118559 1.0680605 0.186424 -0.062856 -0.005768 -1.0343647 -2.7474035 -4.5013319 24.4426357 26.0086476 56.3759695 25.7913835
2.1199561 -0.3133756 0.7118045 -0.019207 -0.350445 0.001750 34.8724348 -1.9794660 7.7791822 96.7429346 -6.0296518 14.1809318 11.9652023
2.0909066 -0.2609701 0.7956399 0.028202 -0.333086 0.005227 25.9683118 2.2838567 11.7109594 90.4074327 1.0038536 26.6855961 13.1129547
2.0401857 -0.2083247 0.8682269 0.072522 -0.301483 0.008804 14.9266075 3.8297413 10.4470541 80.5652977 7.7347512 36.6624519 14.9533206
1.9722693 -0.1574733 0.9272026 0.111603 -0.260259 0.010992 6.1275098 2.8542074 6.0540483 69.0235643 13.7258350 43.7583773 17.1279525
1.8915144 -0.1096558 0.9721766 0.144929 -0.214565 0.010687 0.9641205 0.7116453 1.2904980 57.2586371 18.8071037 48.2677623 19.3599495
1.8014097 -0.0654876 1.0041167 0.172347 -0.168539 0.007944 -1.2265091 -1.3566982 -2.1887489 46.4376183 22.9716585 50.7528362 21.5145431
1.7043431 -0.0252253 1.0247149 0.194600 -0.125436 0.003130 -1.7135802 -2.7772232 -4.0754634 36.9077764 26.4174571 51.9267184 23.4808088
1.6016878 0.0110153 1.0359370 0.211689 -0.086926 -0.002863 -1.4795202 -3.5040642 -4.7511590 28.8619785 29.2497733 52.2649851 25.2329700
2.1134905 -0.2187026 0.7090073 0.071085 -0.347285 0.003736 29.4786293 5.9714413 6.3892389 93.6969663 6.5434162 13.3255651 12.6004451
2.0735665 -0.1696424 0.7885385 0.113007 -0.321041 0.008038 18.5253589 6.6301923 8.1994814 85.5564574 12.7069756 24.7689364 14.1204916
2.0138058 -0.1221897 0.8561208 0.149428 -0.283394 0.011226 8.3143206 4.5644266 5.7645473 74.7942209 18.2548476 33.6539379 16.3056223
1.9386682 -0.0775335 0.9101253 0.179651 -0.239138 0.012009 1.7286885 1.3742723 1.7067881 63.1147341 22.9182326 39.8651105 18.4769340
1.8521350 -0.0362588 0.9506488 0.204095 -0.193198 0.010092 -1.3964394 -1.5676390 -1.8837140 51.8341919 26.7617571 43.8032095 20.8234229
1.7572291 0.0014039 0.9789200 0.223374 -0.148885 0.005732 -2.1972806 -3.4528532 -3.9854619 41.7295549 29.8952119 46.1093220 22.7702761
1.6559348 0.0353654 0.9967463 0.238025 -0.108709 -0.000117 -2.0119906 -4.4351850 -4.9085032 32.9892375 32.4647648 47.2790654 24.7624363
2.0841700 -0.1288561 0.7045285 0.153492 -0.325665 0.004836 17.9502125 8.4131849 3.8625362 86.4977484 17.7739983 12.2070758 14.2273518
2.0355327 -0.0852084 0.7786915 0.187250 -0.294088 0.009144 8.6882678 5.5951156 3.8533974 77.5003318 22.7776043 22.4095906 16.0777971
1.9690560 -0.0440615 0.8407996 0.214763 -0.254352 0.011296 1.8343144 1.5932288 1.2854344 66.7403010 27.0469850 30.1997038 18.2234020
1.8887878 -0.0059423 0.8897715 0.236211 -0.210769 0.010671 -1.7140927 -1.9974876 -1.7245949 55.7760334 30.4997101 35.6489507 20.4102037
1.7982194 0.0289317 0.9260213 0.252690 -0.167404 0.007282 -2.7743707 -4.3466461 -3.8443400 45.5139197 33.3219231 39.2332857 22.5086956
1.6999611 0.0604653 0.9509450 0.264612 -0.126946 0.002033 -2.5855284 -5.4849597 -4.8572721 36.4904282 35.5953301 41.3894738 24.4246022
2.0358112 -0.0482000 0.6989193 0.222165 -0.291644 0.004990 6.6138806 5.0154018 1.4403466 76.7022666 27.0655961 10.9160079 16.4638848
1.9807803 -0.0107207 0.7671439 0.247274 -0.258481 0.008446 0.9812435 0.9456410 0.4441350 67.7713833 30.8197641 19.9080700 18.1820848
1.9095562 0.0241567 0.8235729 0.266430 -0.219873 0.009407 -2.3235787 -2.8696586 -1.6746389 57.8727989 33.9416173 26.7319577 20.3147081
1.8256990 0.0562446 0.8674891 0.280347 -0.179429 0.007457 -3.3765706 -5.4031350 -3.5196085 48.1159453 36.4416072 31.5646169 22.2187438
1.7323356 0.0854051 0.8995562 0.290110 -0.140562 0.003264 -3.1705636 -6.6545243 -4.5845205 39.1384462 38.5142748 34.7941218 24.2171851
1.9730092 0.0212739 0.6927316 0.275288 -0.252095 0.004341 -0.8042570 -0.8746638 -0.1802372 66.0032951 34.2260683 9.5921582 18.8835182
1.9133909 0.0528642 0.7547860 0.292755 -0.220265 0.006699 -3.2226357 -4.3025602 -1.5117402 57.8307844 36.9803168 17.4063174 20.6185929
1.8386407 0.0822394 0.8054003 0.305254 -0.184849 0.006305 -4.0205751 -6.7147317 -3.0225800 49.0754976 39.2687307 23.3835067 22.4339181
1.7520774 0.1092159 0.8441471 0.313253 -0.148906 0.003440 -3.7033396 -7.8752590 -4.0504371 40.6929612 41.1148803 27.6772908 24.2345020
1.8999433 0.0794724 0.6863779 0.314000 -0.212415 0.003117 -4.0867000 -6.0193754 -0.9553557 55.7688745 39.5463965 8.3949649 21.2092055
1.8366983 0.1060679 0.7421485 0.325377 -0.183372 0.004094 -4.4875104 -7.9810932 -2.2073729 48.6636808 41.6182015 15.2356276 22.6459011
1.7588364 0.1310239 0.7866737 0.332683 -0.152015 0.002720 -4.1021388 -9.0249898 -3.2465826 41.1311194 43.3157220 20.3851044 24.3976778
1.8198626 0.1274120 0.6800734 0.340869 -0.175826 0.001868 -4.8124850 -9.3024338 -1.1828632 46.5819212 43.5011223 7.2470036 23.3799872
1.7529377 0.1502023 0.7292113 0.347674 -0.150222 0.001536 -4.2960607 -9.9648282 -2.2260686 40.4367255 45.0920708 13.1125247 24.7733519
1.7350058 0.1665667 0.6736676 0.358245 -0.143315 0.000349 -4.0960120 -10.2047967 -1.0573583 38.8989239 46.6650586 6.3827753 25.2282255
1.7039396 0.1810254 0.6212299 0.364094 -0.133234 0.000000 -4.5893243 -12.6216910 -0.0000001 35.8410901 46.4779586 -0.0000002 25.9416830
1.7872689 0.1468643 0.6212299 0.351013 -0.162792 0.000000 -4.3594232 -9.3807088 -0.0000001 43.4708230 45.2290447 0.0000013 24.0236972
1.8690214 0.1040299 0.6212299 0.329668 -0.197200 0.000000 -4.6810204 -7.7854690 -0.0000000 51.9850479 41.6975018 0.0000001 22.1723832
1.9458445 0.0513130 0.6212299 0.297473 -0.236082 0.000000 -2.6679648 -3.3382594 0.0000000 61.8660853 37.1472949 0.0000000 19.7736494
2.0145541 -0.0124762 0.6212299 0.251756 -0.276814 0.000000 2.9220783 2.6346600 -0.0000000 72.6772680 30.9172625 -0.0000000 17.4349009
2.0711804 -0.0878744 0.6212299 0.190576 -0.315073 0.000000 13.2575145 7.9326516 -0.0000001 83.3474274 22.6226957 -0.0000002 14.9274958
2.1110638 -0.1739326 0.6212299 0.114010 -0.344442 0.000000 26.2899767 8.5672440 -0.0000002 92.2820751 12.2381205 -0.0000007 12.9985163
2.1296538 -0.2674396 0.6212299 0.025820 -0.357766 0.000000 36.2710629 2.4810065 -0.0000003 97.7187986 0.1595890 -0.0000005 11.6796533
2.1239961 -0.3628627 0.6212299 -0.066168 -0.350403 0.000000 36.8417102 -7.0436988 -0.0000004 98.3906891 -12.9360980 -0.0000007 11.7503315
2.0941333 -0.4535350 0.6212299 -0.152418 -0.322566 0.000000 27.9488602 -13.2258206 -0.0000003 93.7518743 -26.2445429 -0.0000008 12.8070168
2.0432872 -0.5336489 0.6212299 -0.225329 -0.279440 0.000000 15.3294324 -12.3352630 -0.0000001 84.1672916 -38.3883332 -0.0000005 14.8864194
1.9766416 -0.5997567 0.6212299 -0.281506 -0.228521 0.000000 5.2763393 -6.4695686 -0.0000000 71.3955652 -47.9538332 -0.0000003 17.1562717
1.8997128 -0.6509496 0.6212299 -0.321817 -0.176772 0.000000 -0.2285473 0.4129860 0.0000000 57.8058025 -54.3332617 -0.0000003 19.6013631
1.8173403 -0.6881278 0.6212299 -0.348572 -0.128444 0.000000 -2.0585082 5.5207903 -0.0000000 45.0445543 -57.9693988 -0.0000001 21.5799316
1.7340465 -0.7130079 0.6212299 -0.365691 -0.085494 0.000000 -2.2836869 9.6228790 -0.0000000 34.1652652 -60.3984040 0.0000003 23.5679211
1.6761001 -0.7209365 0.5585819 -0.369137 -0.062084 0.002256 -2.0404860 11.8454648 1.3449755 27.5544286 -59.3401872 -8.0174758 24.5700798
1.6921659 -0.7054817 0.4910865 -0.357082 -0.071115 0.004436 -1.7525658 8.7242311 2.2666325 29.8822229 -58.0912624 -17.8436637 24.0005596
1.6991189 -0.6804869 0.4219015 -0.337177 -0.077711 0.006402 -1.6371997 7.1974196 3.0680488 30.9990901 -55.0076343 -27.5646874 23.7799451
1.6951392 -0.6463099 0.3544303 -0.310251 -0.080734 0.007360 -1.4048385 5.5912947 3.4872094 31.2615956 -50.5878431 -36.9648242 23.3919759
1.6794084 -0.6039231 0.2914973 -0.276372 -0.079134 0.007072 -1.1311833 4.1678945 3.6091738 30.2578457 -44.9911543 -45.4375138 23.4271093
1.6519205 -0.5549153 0.2355014 -0.237651 -0.072500 0.005537 -0.8439201 2.9371101 3.4553468 28.2717154 -38.5964183 -52.5797164 23.4034760
1.6133396 -0.5012529 0.1881647 -0.195504 -0.060885 0.003317 -0.6032582 2.0198778 3.2262960 25.4294736 -31.8424967 -58.2604399 23.8077489
1.5647956 -0.4450119 0.1504204 -0.152505 -0.045150 0.001026 -0.4131174 1.3538238 2.9953656 22.1177751 -25.0593905 -62.3899554 24.1334250
1.5076549 -0.3881341 0.1224367 -0.109905 -0.026610 -0.000576 -0.2714079 0.8857878 2.8496724 18.4842699 -18.5951888 -65.2143241 24.8806907
1.4433244 -0.3322729 0.1037513 -0.069791 -0.006987 -0.001089 -0.1575976 0.5237303 2.7164338 14.9504694 -12.5480476 -66.9069398 25.4171657
1.3731268 -0.2787313 0.0934609 -0.032865 0.012246 -0.000344 -0.0694475 0.2480041 2.6997688 11.5310875 -7.0635209 -67.7568046 26.3148385
1.2982554 -0.2284734 0.0903912 -0.000244 0.029759 0.001461 0.0050982 0.0112881 2.6087688 8.4680557 -2.1755964 -68.0116821 26.9218294
1.2198269 -0.1821861 0.0932387 0.027886 0.044692 0.004008 0.0688602 -0.1970541 2.7331114 5.7120041 2.1443173 -67.8087093 27.8221696
1.1390052 -0.1403450 0.1006482 0.050916 0.056652 0.006270 0.1226071 -0.3845425 2.7783349 3.4934665 5.7749519 -67.0198927 28.3108058
1.0577888 -0.1035093 0.1111465 0.069652 0.064807 0.011288 0.2710688 -0.8974676 4.5546740 1.3367488 9.0791919 -67.2859269 29.1769234
1.7350058 0.1665667 0.5687921 0.358245 -0.143315 -0.000349 -4.0960118 -10.2047964 1.0573581 38.8989235 46.6650593 -6.3827746 25.2282261
1.7529377 0.1502023 0.5132484 0.347674 -0.150222 -0.001536 -4.2960608 -9.9648286 2.2260686 40.4367263 45.0920704 -13.1125235 24.7733516
1.7588364 0.1310239 0.4557861 0.332683 -0.152015 -0.002720 -4.1021389 -9.0249901 3.2465826 41.1311178 43.3157227 -20.3851040 24.3976785
1.7520774 0.1092159 0.3983126 0.313253 -0.148906 -0.003440 -3.7033395 -7.8752588 4.0504369 40.6929614 41.1148809 -27.6772901 24.2345022
1.7323356 0.0854051 0.3429036 0.290110 -0.140562 -0.003264 -3.1705636 -6.6545245 4.5845205 39.1384457 38.5142754 -34.7941210 24.2171851
1.6999611 0.0604653 0.2915147 0.264612 -0.126946 -0.002033 -2.5855285 -5.4849602 4.8572724 36.4904275 35.5953302 -41.3894730 24.4246029
1.6559348 0.0353654 0.2457134 0.238025 -0.108709 0.000117 -2.0119909 -4.4351858 4.9085039 32.9892363 32.4647653 -47.2790639 24.7624365
1.6016878 0.0110153 0.2065228 0.211689 -0.086926 0.002863 -1.4795201 -3.5040639 4.7511584 28.8619796 29.2497736 -52.2649854 25.2329701
1.5388680 -0.0118559 0.1743993 0.186424 -0.062856 0.005768 -1.0343648 -2.7474039 4.5013325 24.4426341 26.0086485 -56.3759687 25.7913841
1.4691334 -0.0327593 0.1493123 0.162914 -0.038008 0.008327 -0.6616801 -2.0947867 4.1111346 19.9403713 22.9000781 -59.5997450 26.3827790
1.3940089 -0.0514494 0.1308800 0.141159 -0.013407 0.010288 -0.3872616 -1.6166133 3.7859136 15.5960931 19.8185298 -62.0889867 26.9866435
1.3148055 -0.0678780 0.1185038 0.121204 0.009754 0.011330 -0.1778894 -1.2203430 3.4153260 11.5088732 16.9190249 -63.9034514 27.5700383
1.2325458 -0.0821264 0.1114889 0.102697 0.030781 0.011652 -0.0276789 -0.9004814 3.0344446 7.7863312 14.1288721 -65.2942501 28.1418126
1.1476522 -0.0942144 0.1091538 0.085446 0.049209 0.010976 0.0631040 -0.5536242 2.2788362 4.4624243 11.5965779 -66.6936716 28.6181428
1.8198626 0.1274120 0.5623863 0.340869 -0.175826 -0.001868 -4.8124852 -9.3024343 1.1828632 46.5819206 43.5011216 -7.2470045 23.3799870
1.8366983 0.1060680 0.5003112 0.325377 -0.183372 -0.004094 -4.4875107 -7.9810937 2.2073730 48.6636798 41.6182017 -15.2356261 22.6459013
1.8386407 0.0822394 0.4370594 0.305254 -0.184849 -0.006305 -4.0205746 -6.7147310 3.0225797 49.0754981 39.2687313 -23.3835072 22.4339179
1.8256990 0.0562446 0.3749706 0.280347 -0.179429 -0.007457 -3.3765700 -5.4031341 3.5196078 48.1159448 36.4416092 -31.5646171 22.2187440
1.7982194 0.0289317 0.3164384 0.252690 -0.167404 -0.007282 -2.7743710 -4.3466467 3.8443404 45.5139187 33.3219229 -39.2332854 22.5086957
1.7572290 0.0014040 0.2635397 0.223374 -0.148885 -0.005732 -2.1972808 -3.4528536 3.9854622 41.7295543 29.8952123 -46.1093209 22.7702756
1.7043431 -0.0252253 0.2177448 0.194600 -0.125436 -0.003130 -1.7135801 -2.7772231 4.0754632 36.9077752 26.4174576 -51.9267190 23.4808094
1.6414930 -0.0500239 0.1798108 0.167142 -0.098332 -0.000040 -1.2580299 -2.1753649 3.9886468 31.6579734 22.9321798 -56.6382414 24.0424778
1.5706292 -0.0723487 0.1498517 0.142233 -0.069601 0.002989 -0.8797785 -1.6972065 3.8477264 26.1599250 19.6159866 -60.2838979 24.9314732
1.4934894 -0.0918590 0.1275039 0.119643 -0.040534 0.005487 -0.5556726 -1.2782516 3.5683253 20.8750575 16.4161992 -62.9664832 25.5706324
1.4114370 -0.1084608 0.1121231 0.099705 -0.012782 0.007159 -0.3108339 -0.9620850 3.3160522 15.8065703 13.5058834 -64.8571470 26.4737904
1.3253030 -0.1221919 0.1029516 0.081562 0.013100 0.007946 -0.1185173 -0.6770920 2.9133469 11.2870781 10.7199836 -66.1844600 27.0202538
1.2350646 -0.1330109 0.0992812 0.065571 0.036240 0.007696 0.0133089 -0.4906213 2.6930116 7.0649036 8.1928237 -67.0211738 27.8830462
1.8999433 0.0794724 0.5560819 0.314000 -0.212415 -0.003117 -4.0867019 -6.0193782 0.9553562 55.7688722 39.5463939 -8.3949640 21.2092057
1.9133909 0.0528642 0.4876737 0.292755 -0.220265 -0.006699 -3.2226353 -4.3025597 1.5117400 57.8307844 36.9803175 -17.4063181 20.6185930
1.9095562 0.0241567 0.4188868 0.266430 -0.219873 -0.009407 -2.3235782 -2.8696580 1.6746385 57.8727986 33.9416191 -26.7319581 20.3147085
1.8887878 -0.0059423 0.3526883 0.236211 -0.210769 -0.010671 -1.7140932 -1.9974883 1.7245955 55.7760329 30.4997097 -35.6489502 20.4102037
1.8521350 -0.0362588 0.2918109 0.204095 -0.193198 -0.010092 -1.3964385 -1.5676380 1.8837127 51.8341918 26.7617595 -43.8032112 20.8234235
1.8014097 -0.0654876 0.2383431 0.172347 -0.168539 -0.007944 -1.2265090 -1.3566981 2.1887488 46.4376182 22.9716591 -50.7528363 21.5145434
1.7389010 -0.0924807 0.1934981 0.142533 -0.138631 -0.004854 -1.1009385 -1.2313450 2.6109661 40.1547388 19.1897806 -56.3421402 22.3675455
1.6669780 -0.1164203 0.1576329 0.115849 -0.105813 -0.001572 -0.8970319 -1.0470836 2.8874908 33.5331485 15.6568104 -60.5710488 23.3346844
1.5877487 -0.1368606 0.1304505 0.092532 -0.072060 0.001322 -0.6746364 -0.8583214 3.0757565 26.9889905 12.3527203 -63.5788049 24.3162507
1.5028372 -0.1536608 0.1112540 0.072462 -0.039125 0.003398 -0.4307279 -0.6410673 3.0158964 20.8518578 9.3774892 -65.5946069 25.2621868
1.4132356 -0.1668543 0.0991868 0.055312 -0.008135 0.004553 -0.2267695 -0.4595067 2.9108962 15.1918774 6.6574894 -66.8659631 26.1973269
1.3191513 -0.1764539 0.0934076 0.040437 0.019891 0.004684 -0.0607512 -0.3029144 2.7139593 10.1983689 4.2857011 -67.5447295 27.0141877
1.9730092 0.0212739 0.5497282 0.275288 -0.252095 -0.004341 -0.8042596 -0.8746666 0.1802378 66.0032923 34.2260656 -9.5921584 18.8835181
1.9807803 -0.0107207 0.4753158 0.247274 -0.258481 -0.008446 0.9812432 0.9456406 -0.4441349 67.7713827 30.8197643 -19.9080696 18.1820847
1.9690560 -0.0440615 0.4016602 0.214763 -0.254352 -0.011296 1.8343126 1.5932273 -1.2854332 66.7402984 27.0469835 -30.1997038 18.2234021
1.9386682 -0.0775335 0.3323345 0.179651 -0.239138 -0.012009 1.7286878 1.3742718 -1.7067875 63.1147328 22.9182330 -39.8651099 18.4769340
1.8915144 -0.1096558 0.2702831 0.144929 -0.214565 -0.010687 0.9641209 0.7116455 -1.2904985 57.2586368 18.8071038 -48.2677636 19.3599495
1.8302616 -0.1390599 0.2174098 0.112393 -0.182345 -0.007981 0.1772882 0.1231260 -0.3182709 50.0147859 14.7119489 -55.0459303 20.2809512
1.7578135 -0.1647501 0.1744970 0.083942 -0.145797 -0.004683 -0.3621863 -0.2395032 0.8795708 42.0489943 10.9784915 -60.1222296 21.5817529
1.6768220 -0.1861805 0.1414098 0.059682 -0.107153 -0.001658 -0.5272443 -0.3352966 1.7814043 34.1461302 7.5405564 -63.6473376 22.6625940
1.5893709 -0.2031875 0.1174350 0.039866 -0.069016 0.000651 -0.4839095 -0.2979513 2.4066480 26.5972405 4.5783150 -65.9201867 23.9956964
1.4968336 -0.2158409 0.1015924 0.023471 -0.032769 0.001887 -0.3167177 -0.1887209 2.5992104 19.8337329 1.9756356 -67.2248798 24.9555015
1.3998293 -0.2242676 0.0928767 0.010403 0.000369 0.002143 -0.1481756 -0.0827720 2.6982056 13.7383151 -0.2397442 -67.8471804 26.1312446
2.0358112 -0.0482000 0.5435404 0.222165 -0.291644 -0.004990 6.6138800 5.0154014 -1.4403466 76.7022657 27.0655962 -10.9160088 16.4638851
2.0355327 -0.0852084 0.4637683 0.187250 -0.294088 -0.009144 8.6882681 5.5951159 -3.8533976 77.5003321 22.7776051 -22.4095916 16.0777972
2.0138058 -0.1221897 0.3863389 0.149428 -0.283394 -0.011226 8.3143188 4.5644258 -5.7645462 74.7942187 18.2548475 -33.6539375 16.3056225
1.9722693 -0.1574733 0.3152572 0.111603 -0.260259 -0.010992 6.1275074 2.8542064 -6.0540462 69.0235612 13.7258343 -43.7583760 17.1279528
1.9138206 -0.1894652 0.2534174 0.076611 -0.227056 -0.008856 3.4081324 1.3208163 -4.6281654 60.9319928 9.3261506 -52.1095796 18.3191164
1.8419326 -0.2169939 0.2023014 0.046360 -0.187317 -0.005835 1.3064172 0.4001873 -2.4208800 51.6743455 5.3690766 -58.4033828 19.7338430
1.7599356 -0.2394352 0.1621320 0.021580 -0.144356 -0.002840 0.1141337 0.0240251 -0.2928026 42.1719861 1.8827301 -62.7949851 21.2210774