# volRat = 0.650000
# viscRat = 1.000000
# alpha = 0.125000
# shRate = 6.364000
# tnum = 13700
# time = 12.965258
VARIABLES = X, Y, Z, U, V, W, F_B0, F_B1, F_B2, F_0, F_1, F_2, T
ZONE N=2562 E=5120 F=FEPOINT ET=TRIANGLE
1.4404565 -0.0816281 0.6212299 2.008040 -0.758348 -0.000000 16.6882240 44.2638136 0.0000062 41.7209495 80.2795901 0.0000064 25.9868907
-1.6378332 1.0422226 0.6212298 1.836698 0.247173 -0.000000 -4.2804163 31.3615816 0.0000087 -29.3224568 79.8802876 0.0000075 20.0989198
1.6378332 -1.0422225 0.6212298 -1.836698 -0.247173 -0.000000 4.2804163 -31.3615803 0.0000085 29.3224572 -79.8802869 0.0000068 20.0989199
-1.4404565 0.0816281 0.6212299 -2.008040 0.758348 -0.000000 -16.6882254 -44.2638174 0.0000061 -41.7209511 -80.2795940 0.0000065 25.9868906
0.9046615 -0.3037423 1.1126551 0.398855 -0.070101 0.013227 0.0670382 17.2287539 81.9124713 2.9039351 23.0758066 132.5648153 25.9672270
0.9046615 -0.3037423 0.1298046 0.398855 -0.070101 -0.013227 0.0670983 17.2289399 -81.9127976 2.9039910 23.0759862 -132.5651527 25.9672269
-0.9046615 0.3037423 1.1126551 -0.398855 0.070101 0.013227 -0.0670384 -17.2287544 81.9124712 -2.9039354 -23.0758073 132.5648145 25.9672269
-0.9046615 0.3037423 0.1298046 -0.398855 0.070101 -0.013227 -0.0670982 -17.2289402 -81.9127996 -2.9039909 -23.0759865 -132.5651547 25.9672269
-0.1690794 0.4734515 0.8653905 1.708408 -0.897199 0.001344 17.1095889 32.6691121 22.4072083 37.2127866 74.0628210 54.5368225 28.3328837
0.1690794 -0.4734515 0.8653905 -1.708408 0.897199 0.001344 -17.1098326 -32.6695702 22.4073749 -37.2130354 -74.0632896 54.5369894 28.3328836
-0.1690794 0.4734515 0.3770692 1.708408 -0.897199 -0.001344 17.1100408 32.6699612 -22.4077130 37.2132476 74.0636877 -54.5373340 28.3328836
0.1690794 -0.4734515 0.3770692 -1.708408 0.897199 -0.001344 -17.1102307 -32.6703177 -22.4079757 -37.2134410 -74.0640512 -54.5376022 28.3328834
1.4648718 -0.0920994 0.6624714 1.987175 -0.767370 0.018215 -9.0642169 -23.5550581 -1.7662992 21.0860833 23.1060294 2.8722576 25.8440402
1.4846200 -0.1051834 0.7077506 1.948014 -0.774776 0.039213 -4.3249096 -10.9869403 -1.8449073 26.5703819 34.6123922 8.3742490 25.3845607
1.4971544 -0.1205706 0.7556855 1.891086 -0.778032 0.061560 -4.2482433 -10.5712966 -2.8556599 26.9711061 33.7828731 13.1243384 25.1900182
1.5007168 -0.1379230 0.8046533 1.815389 -0.774751 0.082800 -4.1171232 -10.0801351 -3.8661498 26.9693950 32.4713002 18.0062493 24.7843227
1.4942808 -0.1568784 0.8532389 1.722870 -0.763393 0.100543 -3.8443232 -9.3215407 -4.7517077 26.4830780 31.0855508 22.9727846 24.6879357
1.4773669 -0.1769317 0.9000071 1.614833 -0.741738 0.112631 -3.4171025 -8.2765274 -5.3876780 25.5992568 29.5404851 27.9377397 24.4286310
1.4500206 -0.1974364 0.9436206 1.495481 -0.708777 0.117801 -2.9222690 -7.1460780 -5.7871045 24.1461617 27.7973973 32.7275021 24.4814596
1.4127643 -0.2176518 0.9829576 1.367783 -0.663498 0.115826 -2.3744541 -5.9386660 -5.8787113 22.3263772 25.8502645 37.2834966 24.4017643
1.3665063 -0.2368224 1.0172114 1.236500 -0.606788 0.107685 -1.8544351 -4.8185673 -5.7633426 20.0641605 23.7423903 41.4497144 24.6172176
1.3124215 -0.2542591 1.0459350 1.104149 -0.539592 0.094850 -1.3518320 -3.7209661 -5.3407979 17.6292678 21.5290664 45.2872590 24.6579360
1.2518322 -0.2694043 1.0690265 0.974206 -0.464458 0.079272 -0.9762863 -2.9200315 -5.0166211 14.9316616 19.1180315 48.4428785 24.9928479
1.1861204 -0.2818689 1.0866754 0.847761 -0.383995 0.062904 -0.6230001 -2.0994505 -4.3244137 12.3226965 16.8072484 51.3870268 25.0948521
1.1167109 -0.2914466 1.0992834 0.726752 -0.301292 0.047265 -0.4085984 -1.6447418 -4.0882748 9.6281363 14.3322904 53.5264978 25.4643021
1.0451196 -0.2981209 1.1073947 0.610611 -0.218850 0.033455 -0.1960741 -1.0553381 -3.2045671 7.2062096 12.0661626 55.9589206 25.5774911
0.9735724 -0.3020643 1.1116163 0.501303 -0.140792 0.022380 -0.6324769 -6.1948389 -23.5256897 4.2511571 4.4683750 37.6014177 25.9399506
1.7501148 -1.0133993 0.6952346 -1.677352 -0.543403 -0.044936 -1.7373601 5.3935607 -0.9009576 41.2016028 -50.8016948 10.3562274 17.6901951
1.7649782 -0.9883866 0.7709904 -1.574599 -0.625502 -0.082120 -0.8740051 2.2932967 -0.8421534 44.1241478 -48.6662557 21.2152231 17.1795497
1.7649638 -0.9524516 0.8454182 -1.436230 -0.689622 -0.107931 -0.2541259 0.5805353 -0.3554279 44.6572781 -43.5693798 31.4825972 16.8251337
1.7496946 -0.9068689 0.9147798 -1.265690 -0.728971 -0.117472 0.1315024 -0.2659201 0.2461199 43.0171639 -37.4268451 40.2941623 16.8589035
1.7196701 -0.8539075 0.9759182 -1.073176 -0.738624 -0.110137 0.1738604 -0.3129152 0.4224496 39.7413732 -30.7265380 47.2169645 17.1832429
1.6763702 -0.7962310 1.0268153 -0.869055 -0.717371 -0.089892 -0.0303898 0.0482416 -0.0951279 35.2418353 -24.0275406 52.0282710 17.8510864
1.6218314 -0.7363272 1.0667613 -0.663517 -0.668986 -0.062739 -0.2462115 0.3331839 -0.9969386 30.2672478 -17.8329727 55.1092501 18.7238968
1.5581855 -0.6761412 1.0961323 -0.464475 -0.600826 -0.034660 -0.3691655 0.3899905 -1.9545692 25.3059524 -12.3043959 56.7714355 19.7305452
1.4873436 -0.6169676 1.1159940 -0.277227 -0.521504 -0.010043 -0.3886023 0.2480785 -2.7291911 20.7301779 -7.5007996 57.5087723 20.7924194
1.4108678 -0.5595301 1.1277367 -0.104497 -0.439175 0.008689 -0.3309008 0.0038601 -3.1294555 16.6846731 -3.4128393 57.6945969 21.8491623
1.3299722 -0.5041364 1.1328070 0.051858 -0.360266 0.020956 -0.2585141 -0.2457831 -3.3312462 13.2632486 0.0830128 57.5695931 22.8417277
1.2455807 -0.4508373 1.1325783 0.191199 -0.289431 0.027305 -0.1908357 -0.4594328 -3.3563429 10.4519368 3.0557907 57.2848947 23.7445306
1.1583534 -0.3995416 1.1282758 0.313666 -0.229160 0.028814 -0.1467253 -0.6556004 -3.4569917 8.1147291 5.5721514 56.8424130 24.6017485
1.0684689 -0.3501060 1.1210122 0.417804 -0.180188 0.026911 -0.2162370 -1.5214527 -6.5248438 6.2525504 7.1221608 53.7912008 25.2866427
1.8351437 -0.9770963 0.7018163 -1.507746 -0.803080 -0.042311 1.5697957 -2.9596768 0.6178964 55.0740909 -47.8387310 11.7986469 15.3994568
1.8470223 -0.9434001 0.7830957 -1.370582 -0.889522 -0.074584 3.2835279 -5.2292770 2.4507746 57.3445828 -42.9644840 23.6874268 14.6728674
1.8402561 -0.8994117 0.8607276 -1.197512 -0.942864 -0.089424 3.9090079 -5.3346263 4.3034060 56.3338006 -36.7509419 34.1846551 14.6641098
1.8156885 -0.8472242 0.9306927 -0.999418 -0.959608 -0.086029 3.4367020 -4.0061710 5.1232516 52.7902166 -29.7427992 42.7402828 14.9174715
1.7751494 -0.7897179 0.9901006 -0.787075 -0.937052 -0.067524 2.1270404 -2.0648303 4.1457244 47.1597452 -22.6964617 48.8288418 15.8098091
1.7212344 -0.7297382 1.0376229 -0.574298 -0.880638 -0.040186 0.8618698 -0.6519238 2.1667271 40.7940949 -16.1310071 52.7674782 16.7911918
1.6567064 -0.6695296 1.0733563 -0.368489 -0.798554 -0.011497 -0.0452128 0.0224256 -0.1461413 34.2504736 -10.3478596 54.9796347 18.1705066
1.5840201 -0.6105495 1.0983617 -0.176697 -0.702276 0.013583 -0.4585004 0.0718222 -1.9081423 28.2301475 -5.3456693 56.0186003 19.3812331
1.5050988 -0.5535490 1.1141589 -0.000656 -0.601237 0.031939 -0.5850222 -0.1769913 -3.1414586 22.8740207 -1.1449661 56.2793345 20.7838251
1.4213108 -0.4987690 1.1223750 0.157493 -0.503875 0.043063 -0.5238664 -0.4865729 -3.6280295 18.4201191 2.4344625 56.1955408 21.8659450
1.3335158 -0.4461323 1.1245346 0.298843 -0.414872 0.047329 -0.4445334 -0.7850788 -3.9443522 14.6229105 5.4049944 55.8418598 23.1194778
1.2420585 -0.3953788 1.1219923 0.421650 -0.337695 0.046339 -0.3466378 -0.9811791 -3.8773933 11.6588749 7.9755358 55.5096319 23.9447120
1.1465500 -0.3461610 1.1159247 0.526927 -0.272824 0.041283 -0.2835447 -1.1548708 -3.8886460 9.1541855 10.1132745 55.1969873 24.9741113
1.9127620 -0.9244956 0.7070495 -1.272184 -1.071157 -0.035745 10.0709016 -11.9901472 3.2499292 68.8170346 -40.7560337 12.8908516 12.7869368
1.9180864 -0.8823277 0.7921519 -1.097296 -1.145795 -0.055028 12.1371866 -11.9018381 7.5634009 69.4999978 -34.6901498 25.0616319 12.4081846
1.9018749 -0.8313705 0.8712373 -0.893443 -1.174043 -0.055697 11.0920920 -8.8582298 10.3392002 66.2391109 -27.6648370 35.4766393 12.6391787
1.8662012 -0.7745635 0.9401614 -0.675100 -1.153716 -0.038640 7.7744123 -4.8297920 9.9141284 60.0211854 -20.5704187 43.2372895 13.5561359
1.8142551 -0.7150381 0.9966029 -0.456163 -1.091045 -0.011581 4.0779085 -1.7490858 6.8433917 52.2377547 -13.8217735 48.5164111 14.8751171
1.7495890 -0.6553306 1.0401061 -0.246554 -0.996151 0.017548 1.3397699 -0.2699931 2.9062939 44.0828136 -7.9270448 51.6875665 16.4538730
1.6753927 -0.5970628 1.0715640 -0.052937 -0.882896 0.042712 -0.1962318 -0.0164019 -0.5455811 36.3894780 -2.8313361 53.2798167 18.0677613
1.5941295 -0.5410169 1.0925746 0.122749 -0.763263 0.060309 -0.7875054 -0.3558938 -2.7918865 29.6154077 1.4087628 53.9218437 19.6453313
1.5074768 -0.4873760 1.1049340 0.280152 -0.647049 0.069537 -0.8843877 -0.8223924 -3.9755216 23.8490544 4.9817887 54.0394885 21.1123177
1.4164092 -0.4359656 1.1103590 0.419177 -0.540363 0.071278 -0.7773471 -1.1961833 -4.3907097 19.1397467 7.9665990 53.8748565 22.4088670
1.3212676 -0.3864326 1.1103669 0.540594 -0.446816 0.067051 -0.6378964 -1.4565085 -4.4610456 15.2560109 10.4949206 53.6139902 23.5819277
1.2217310 -0.3383678 1.1062771 0.643615 -0.367178 0.058501 -0.5073160 -1.5906018 -4.2990785 12.1603864 12.5823640 53.4325499 24.5956380
1.9774440 -0.8548872 0.7108136 -0.957837 -1.319788 -0.022186 24.0389197 -17.4267074 6.7136893 80.1949843 -30.9803509 13.2568597 10.3544713
1.9728471 -0.8057161 0.7976667 -0.750104 -1.364986 -0.025251 23.8460284 -13.2239654 13.0665677 78.3441357 -24.3443313 25.2824508 10.2910621
1.9449757 -0.7503224 0.8760993 -0.527308 -1.351776 -0.009240 18.1089342 -7.0756834 15.0247808 72.2606248 -17.4947297 34.8971644 11.2880253
1.8972923 -0.6920072 0.9423348 -0.305205 -1.286850 0.018152 10.6448930 -2.2972684 12.1924412 63.6723347 -10.9119653 41.9348032 12.7000450
1.8341053 -0.6335414 0.9949055 -0.095447 -1.181877 0.048361 4.4299849 -0.0579042 6.7156457 54.0973085 -5.1176152 46.4155377 14.6617018
1.7594809 -0.5766960 1.0342235 0.095676 -1.054125 0.074055 0.7876564 0.1851801 1.5464058 44.8803419 -0.0654303 49.0251215 16.5003958
1.6766073 -0.5222823 1.0617828 0.267301 -0.917542 0.090853 -0.8669095 -0.4745088 -2.1754858 36.5971648 4.1020562 50.3709123 18.4917456
1.5876571 -0.4704319 1.0794873 0.418988 -0.784256 0.098406 -1.2927949 -1.2174023 -4.1030167 29.6175035 7.6328846 50.9546981 20.0807694
1.4938985 -0.4208923 1.0892291 0.552728 -0.661275 0.097319 -1.2641004 -1.8091849 -5.0146802 23.7787568 10.5251191 51.0549150 21.7411228
1.3958637 -0.3732395 1.0927161 0.668781 -0.552869 0.089743 -1.0247451 -2.0670868 -5.0045101 19.1178336 13.0016217 51.1124516 22.9562202
1.2934683 -0.3270217 1.0914271 0.767590 -0.460554 0.077655 -0.8182210 -2.1925314 -4.8223575 15.3233512 15.0562770 51.1308954 24.2431837
2.0228072 -0.7702660 0.7125846 -0.568402 -1.512591 -0.003874 37.6938132 -14.0276625 9.4994232 86.5204594 -19.7879166 12.9038960 8.6035773
2.0059214 -0.7170891 0.7988783 -0.343381 -1.512489 0.012080 31.4060561 -6.8746237 15.7413280 81.8198951 -13.5345984 24.0838516 9.3102782
1.9655895 -0.6608749 0.8746836 -0.121061 -1.451004 0.041057 20.0356597 -1.1525569 15.3663389 73.4458157 -7.4666810 32.8908316 10.8880249
1.9064619 -0.6045232 0.9370471 0.085170 -1.342391 0.073890 9.4492717 1.1967843 10.0810988 63.2864390 -1.9402165 39.0727579 12.9853364
1.8333918 -0.5499087 0.9854183 0.270216 -1.205144 0.101273 2.5760468 0.8974350 3.6535622 52.8748266 2.9046819 43.0779242 15.2070312
1.7503959 -0.4978607 1.0208608 0.432745 -1.056046 0.118976 -0.7166162 -0.4461360 -1.3170583 43.4092714 6.9292911 45.4431754 17.3631465
1.6603031 -0.4484657 1.0451956 0.575168 -0.909305 0.125738 -1.8071648 -1.7400676 -4.2284987 35.1963435 10.3401307 46.7496353 19.3357896
1.5648431 -0.4014026 1.0604177 0.699342 -0.773071 0.122757 -1.8523682 -2.5534839 -5.4315110 28.4277602 13.1548557 47.4722298 21.0845593
1.4648761 -0.3561890 1.0683981 0.807238 -0.652757 0.112445 -1.5598312 -2.9155082 -5.6338998 22.8978190 15.5414017 47.8852755 22.5890628
1.3606162 -0.3123291 1.0707871 0.898857 -0.549831 0.097241 -1.2288903 -2.9724268 -5.3576310 18.4949998 17.5249587 48.1845998 23.8910007
2.0436009 -0.6759275 0.7119831 -0.130932 -1.616471 0.016630 41.5688745 -3.1153523 9.7768653 86.8352013 -9.1127178 11.9729910 8.1009664
2.0139096 -0.6226569 0.7955232 0.089189 -1.565976 0.048466 29.0796574 2.1878107 13.7600262 79.9754581 -3.7211412 22.1420515 9.4589242
1.9621487 -0.5692575 0.8672485 0.289769 -1.461893 0.085435 14.9595640 3.6607013 10.9262819 70.2403690 1.3726576 29.9698390 11.6588803
1.8935060 -0.5176333 0.9251900 0.465117 -1.323059 0.117300 4.8922609 2.1833726 4.9993645 59.6367352 5.8915901 35.5462562 13.9429152
1.8126976 -0.4686132 0.9695156 0.615591 -1.168844 0.138399 -0.4676110 -0.3238501 -0.6367304 49.4037043 9.7238131 39.1625473 16.4125321
1.7232772 -0.4222413 1.0016432 0.744938 -1.014386 0.146769 -2.3557590 -2.3430975 -4.1493152 40.3938989 12.9856938 41.4919152 18.4736445
1.6275658 -0.3781426 1.0234797 0.856675 -0.870022 0.143846 -2.6293738 -3.5743452 -5.8573617 32.7908428 15.6666626 42.9229551 20.5036492
1.5268797 -0.3357858 1.0369805 0.953342 -0.741497 0.132281 -2.2145245 -3.9544158 -6.1098942 26.6146446 17.9981949 43.9533533 22.0497474
1.4217990 -0.2946426 1.0439375 1.035923 -0.631252 0.115061 -1.7672119 -3.9935361 -5.9063019 21.6011081 19.8873180 44.6367050 23.5998537
2.0378610 -0.5793012 0.7090642 0.310712 -1.619016 0.034294 32.1435310 6.4295931 7.2534866 82.0423250 0.1610968 10.8182778 9.0728150
1.9968314 -0.5294650 0.7881731 0.505010 -1.528159 0.076583 18.0186841 6.4302176 8.2574093 73.9266626 4.6808853 19.8171174 10.9816154
1.9360238 -0.4813759 0.8550239 0.670400 -1.397900 0.115220 6.2803055 3.4034574 4.4715476 63.9892279 8.8105758 26.7494823 13.3366655
1.8604059 -0.4358355 0.9084769 0.807973 -1.247604 0.142901 -0.4761440 -0.3647912 -0.4758682 53.8700273 12.4188028 31.7035292 15.7504892
1.7741102 -0.3928524 0.9491203 0.923225 -1.093521 0.156150 -3.1297438 -3.2514726 -4.1652976 44.5460529 15.4903187 35.1702055 18.0174551
1.6800902 -0.3520093 0.9784728 1.020803 -0.947152 0.156299 -3.5134437 -4.7982459 -6.0169338 36.5682228 18.1021868 37.5714065 20.0610072
1.5802187 -0.3127427 0.9983926 1.105017 -0.815566 0.145911 -3.0401676 -5.3043443 -6.5178815 29.8490211 20.3131575 39.2466141 21.8347891
1.4755350 -0.2745032 1.0107371 1.176618 -0.701819 0.128748 -2.3988109 -5.1906889 -6.2740341 24.4457245 22.1788955 40.4718177 23.3431962
2.0075853 -0.4873938 0.7043426 0.713369 -1.536215 0.046054 16.1206126 7.6452910 3.5692339 73.8517533 7.9636219 9.5748534 11.1670554
1.9578432 -0.4430725 0.7780328 0.870945 -1.423675 0.092020 5.6450188 3.6378091 2.5557678 65.5653110 11.6346235 17.4906302 13.1356117
1.8906834 -0.4011761 0.8397354 0.997965 -1.286883 0.128385 -1.2127523 -1.0303690 -0.8562525 56.3401632 14.9187735 23.6003913 15.4988302
1.8103978 -0.3616811 0.8888511 1.100333 -1.141652 0.149887 -4.0505076 -4.4474948 -4.0141588 47.4754969 17.8166478 28.2016695 17.6418629
1.7204241 -0.3241434 0.9261319 1.184835 -1.000625 0.156456 -4.5483595 -6.3411126 -5.9755232 39.4198866 20.2917380 31.5119656 19.8095067
1.6232165 -0.2879801 0.9530678 1.256185 -0.871402 0.150398 -3.9175504 -6.8007536 -6.5607985 32.5888796 22.4520651 33.9762895 21.5071378
1.5203570 -0.2526386 0.9714222 1.317029 -0.758688 0.135784 -3.1174722 -6.5844791 -6.4436117 26.9039069 24.2717610 35.7881789 23.1960776
1.9573990 -0.4046801 0.6985494 1.051811 -1.402237 0.050854 2.5064863 1.9084767 0.5538035 64.1241586 14.3408651 8.3613636 13.7857306
1.9015996 -0.3663438 0.7664333 1.172410 -1.286636 0.095600 -2.8556017 -2.7083254 -1.2951801 56.5544817 17.2633124 15.2929654 15.7601668
1.8302524 -0.3302076 0.8230044 1.266510 -1.158503 0.126916 -5.2898515 -6.2131481 -3.7423604 48.6430244 19.9507932 20.7898141 17.8187253
1.7468895 -0.2958063 0.8679352 1.340675 -1.029260 0.142578 -5.5840133 -8.0620792 -5.5221332 41.1557500 22.3145762 25.0237199 19.7808012
1.6544093 -0.2625532 0.9020133 1.401807 -0.908215 0.143791 -4.8181888 -8.4508439 -6.2599390 34.4707225 24.4083366 28.2582791 21.5755108
1.5549672 -0.2299105 0.9266759 1.452777 -0.800480 0.134272 -3.8114565 -7.9824723 -6.2257890 28.8392920 26.2244010 30.7521613 23.1507410
1.8925143 -0.3326971 0.6923522 1.321274 -1.251715 0.049878 -4.9518301 -5.2880945 -1.1037364 54.6325854 19.4826038 7.3161903 16.4859891
1.8326391 -0.2996991 0.7544330 1.411305 -1.145730 0.089929 -6.4676200 -8.2228896 -2.9600717 48.2698922 21.9074138 13.4673018 18.1160951
1.7583998 -0.2681689 0.8059766 1.480163 -1.034310 0.115692 -6.5026102 -9.8487724 -4.6236323 41.6881177 24.1121760 18.4042448 20.0100705
1.6727748 -0.2375098 0.8467670 1.534276 -0.925820 0.125932 -5.5647036 -9.9921078 -5.4821006 35.5847042 26.1496807 22.3612806 21.5864660
1.5784071 -0.2072237 0.8776235 1.578656 -0.827226 0.123728 -4.4517133 -9.3675307 -5.6829509 30.1507292 27.9458838 25.4433230 23.2167820
1.8173798 -0.2708963 0.6862109 1.530107 -1.109400 0.045296 -7.4077880 -10.3122915 -1.6724385 46.2919082 23.7333020 6.4295381 18.9766710
1.7545385 -0.2420594 0.7426624 1.597613 -1.019188 0.079368 -7.1016036 -11.4149542 -3.2794119 41.0555553 25.7861017 11.8786046 20.4850654
1.6778669 -0.2137183 0.7892160 1.649432 -0.927160 0.098866 -6.1219507 -11.3809732 -4.3532727 35.7097942 27.7150830 16.4027668 21.9855905
1.5902032 -0.1854092 0.8257415 1.689939 -0.840092 0.104892 -4.9312070 -10.5405095 -4.7902199 30.8262517 29.4815854 20.0405742 23.4186812
1.7352863 -0.2177259 0.6803591 1.690718 -0.987985 0.038745 -7.2568052 -12.5113550 -1.6542262 39.3918437 27.3068114 5.7290479 21.1354699
1.6697456 -0.1916903 0.7313172 1.742586 -0.914468 0.066048 -6.3167857 -12.2738446 -2.9190770 35.1860433 29.1279815 10.6421032 22.3095688
1.5904322 -0.1651129 0.7726869 1.783274 -0.841368 0.080096 -5.1727274 -11.3315973 -3.6263049 30.8932153 30.8844412 14.7158247 23.7156472
1.6484978 -0.1713781 0.6748310 1.814963 -0.891542 0.031854 -6.2017301 -12.7009254 -1.4099252 33.8087130 30.4215275 5.0968322 23.0056636
1.5796590 -0.1467070 0.7200829 1.856868 -0.833353 0.052368 -5.1685491 -11.6862002 -2.3457544 30.4376487 32.1469629 9.5345619 24.1028337
1.5584766 -0.1301335 0.6693384 1.911387 -0.817842 0.024750 -5.9477680 -13.9659267 -1.3161192 28.6008829 31.0596499 4.4184205 24.5421100
1.5253581 -0.1141771 0.6212299 1.950897 -0.794501 -0.000000 -3.5020438 -8.6144619 -0.0000000 29.4419699 37.4867737 0.0000003 25.0945803
1.6129632 -0.1517771 0.6212299 1.867891 -0.859406 -0.000000 -5.4589332 -11.8874504 -0.0000000 32.1219560 31.9561581 -0.0000001 23.5409435
1.7003563 -0.1946349 0.6212299 1.761316 -0.944398 -0.000000 -6.9107717 -12.9158913 0.0000000 36.9754586 28.9021571 -0.0000000 22.0070482
1.7847929 -0.2438066 0.6212298 1.621790 -1.054864 0.000000 -7.5915271 -11.6997323 0.0000001 43.3206092 25.5965366 -0.0000005 19.8577586
1.8639913 -0.3009104 0.6212298 1.439843 -1.189675 0.000000 -6.6484637 -8.0698369 0.0000001 51.0743583 21.6522980 -0.0000005 17.5900533
1.9350063 -0.3676646 0.6212298 1.202622 -1.340993 0.000000 -1.5381210 -1.3845307 0.0000000 60.3065046 16.9786503 -0.0000010 14.8398029
1.9938394 -0.4452659 0.6212298 0.898567 -1.490246 0.000000 9.8167929 5.9507878 -0.0000002 70.2432514 11.1978753 -0.0000009 12.1611628
2.0354126 -0.5333825 0.6212298 0.524080 -1.606338 0.000000 26.9161441 8.8682594 -0.0000006 79.8024864 4.0789416 -0.0000014 9.5733483
2.0543897 -0.6290326 0.6212298 0.093637 -1.652138 0.000000 42.0486566 2.5257669 -0.0000011 86.7691463 -4.5053911 -0.0000016 8.0211492
2.0470564 -0.7261852 0.6212298 -0.356495 -1.599597 0.000000 45.4210217 -9.9488924 -0.0000013 89.4139790 -14.5597379 -0.0000017 7.6715623
2.0133267 -0.8170939 0.6212298 -0.778808 -1.446804 0.000000 34.6498086 -18.4891460 -0.0000011 86.1977565 -25.7855433 -0.0000019 8.9730514
1.9571976 -0.8949794 0.6212298 -1.134738 -1.218896 0.000000 18.4413372 -17.0512815 -0.0000006 76.9853317 -36.7241292 -0.0000015 11.1551430
1.8851261 -0.9560941 0.6212298 -1.409806 -0.955412 0.000000 5.8293690 -8.5462327 -0.0000002 63.8618854 -45.1993323 -0.0000017 13.8538190
1.8038445 -0.9999260 0.6212298 -1.607898 -0.689830 0.000000 -0.3439684 0.7960495 0.0000000 49.6515917 -50.3359944 -0.0000011 16.2540867
1.7196739 -1.0280245 0.6212298 -1.747223 -0.439738 0.000000 -1.6598041 6.5344357 0.0000001 37.3468169 -55.3408846 -0.0000014 18.5999993
1.6604904 -1.0360381 0.5568640 -1.796672 -0.305462 0.040376 -2.5645440 15.1554153 1.9177851 28.5025162 -49.8172959 -7.7271887 19.7869190
1.6757485 -1.0188843 0.4875372 -1.724766 -0.374202 0.079214 -1.6356001 7.9470946 2.3186100 31.7193417 -51.6469533 -18.0871236 19.1918465
1.6803717 -0.9908108 0.4169861 -1.616433 -0.436969 0.111853 -1.3600079 5.6802177 2.7463170 32.7907717 -48.2018408 -27.7692953 18.9412990
1.6724680 -0.9525458 0.3492107 -1.476783 -0.487106 0.131137 -1.0443595 3.8786870 2.7772258 32.6587802 -43.1962054 -36.5503156 18.6473198
1.6514855 -0.9056328 0.2874179 -1.308783 -0.517322 0.135197 -0.7718852 2.6191910 2.6426394 30.9763638 -37.2523494 -43.8972802 18.8030850
1.6179274 -0.8522438 0.2340007 -1.122607 -0.523498 0.124605 -0.5408540 1.7113343 2.3894504 28.3028048 -31.0236247 -49.6214973 19.0029344
1.5730331 -0.7947210 0.1902851 -0.926694 -0.504971 0.103404 -0.4281739 1.2791213 2.4832499 24.8419523 -24.7942159 -53.5322710 19.6172824
1.5184127 -0.7351872 0.1565600 -0.730177 -0.465215 0.076869 -0.3249813 0.9169244 2.5469776 21.1903407 -19.0687059 -56.1116405 20.2007460
1.4557296 -0.6753030 0.1323108 -0.538667 -0.410127 0.050087 -0.2557186 0.6657278 2.8227809 17.4892270 -13.8879858 -57.4932816 21.1243408
1.3865066 -0.6162107 0.1165164 -0.358183 -0.346863 0.026548 -0.1767428 0.3898225 2.9126148 14.1618196 -9.3495921 -58.1846392 21.8403759
1.3120561 -0.5585991 0.1079280 -0.190681 -0.281758 0.008215 -0.1135603 0.1479365 3.0429492 11.1742090 -5.4245088 -58.3705798 22.8191996
1.2335078 -0.5028315 0.1052446 -0.038695 -0.220378 -0.004432 -0.0583049 -0.0678575 2.9182251 8.6700615 -2.0506737 -58.3872790 23.5099694
1.1519240 -0.4490986 0.1072219 0.097239 -0.166472 -0.011866 -0.0234283 -0.2418297 2.8746021 6.5809174 0.8752573 -58.3551309 24.4029545
1.0684618 -0.3975632 0.1127047 0.215762 -0.122467 -0.015014 -0.0025314 -0.2539928 1.8772274 5.0200862 3.4116658 -58.6561913 24.9115477
0.9851782 -0.3488251 0.1205119 0.317705 -0.090067 -0.015436 -0.0021712 0.2586481 -1.4408057 3.6434421 6.5920031 -63.4020603 25.7147537
1.5584766 -0.1301334 0.5731213 1.911387 -0.817842 -0.024751 -5.9477662 -13.9659225 1.3161187 28.6008847 31.0596542 -4.4184206 24.5421101
1.5796590 -0.1467070 0.5223768 1.856868 -0.833353 -0.052368 -5.1685483 -11.6861984 2.3457540 30.4376494 32.1469647 -9.5345619 24.1028338
1.5904322 -0.1651129 0.4697728 1.783274 -0.841368 -0.080096 -5.1727289 -11.3316008 3.6263060 30.8932135 30.8844380 -14.7158233 23.7156475
1.5902032 -0.1854092 0.4167182 1.689939 -0.840092 -0.104892 -4.9312040 -10.5405033 4.7902170 30.8262545 29.4815922 -20.0405770 23.4186814
1.5784071 -0.2072237 0.3648362 1.578656 -0.827226 -0.123728 -4.4517158 -9.3675360 5.6829541 30.1507262 27.9458788 -25.4433197 23.2167823
1.5549672 -0.2299105 0.3157838 1.452777 -0.800480 -0.134272 -3.8114566 -7.9824727 6.2257891 28.8392913 26.2244010 -30.7521610 23.1507413
1.5203570 -0.2526386 0.2710375 1.317029 -0.758688 -0.135784 -3.1174714 -6.5844777 6.4436103 26.9039068 24.2717630 -35.7881804 23.1960780
1.4755349 -0.2745032 0.2317226 1.176618 -0.701819 -0.128748 -2.3988114 -5.1906901 6.2740355 24.4457232 22.1788946 -40.4718161 23.3431965
1.4217990 -0.2946426 0.1985222 1.035923 -0.631252 -0.115061 -1.7672117 -3.9935358 5.9063012 21.6011075 19.8873189 -44.6367054 23.5998541
1.3606162 -0.3123291 0.1716726 0.898857 -0.549831 -0.097241 -1.2288899 -2.9724259 5.3576292 18.4949996 17.5249601 -48.1846014 23.8910010
1.2934683 -0.3270217 0.1510326 0.767590 -0.460554 -0.077655 -0.8182210 -2.1925314 4.8223575 15.3233507 15.0562775 -51.1308953 24.2431840
1.2217310 -0.3383678 0.1361826 0.643615 -0.367178 -0.058501 -0.5073160 -1.5906018 4.2990783 12.1603859 12.5823645 -53.4325499 24.5956383
1.1465500 -0.3461610 0.1265350 0.526927 -0.272824 -0.041283 -0.2835445 -1.1548702 3.8886438 9.1541849 10.1132757 -55.1969895 24.9741116
1.0684689 -0.3501060 0.1214475 0.417804 -0.180188 -0.026911 -0.2162370 -1.5214529 6.5248447 6.2525501 7.1221605 -53.7912000 25.2866427
1.6484978 -0.1713781 0.5676287 1.814963 -0.891542 -0.031854 -6.2017287 -12.7009227 1.4099249 33.8087141 30.4215301 -5.0968328 23.0056636
1.6697456 -0.1916903 0.5111425 1.742586 -0.914468 -0.066048 -6.3167859 -12.2738451 2.9190771 35.1860428 29.1279814 -10.6421035 22.3095688
1.6778669 -0.2137183 0.4532437 1.649432 -0.927160 -0.098866 -6.1219500 -11.3809721 4.3532723 35.7097943 27.7150842 -16.4027676 21.9855905
1.6727748 -0.2375098 0.3956927 1.534276 -0.925820 -0.125932 -5.5647023 -9.9921057 5.4820994 35.5847044 26.1496829 -22.3612818 21.5864661
1.6544093 -0.2625532 0.3404464 1.401807 -0.908215 -0.143791 -4.8181897 -8.4508458 6.2599403 34.4707206 24.4083352 -28.2582777 21.5755109
1.6232164 -0.2879801 0.2893919 1.256185 -0.871402 -0.150399 -3.9175511 -6.8007551 6.5607999 32.5888780 22.4520643 -33.9762881 21.5071379
1.5802187 -0.3127427 0.2440671 1.105017 -0.815565 -0.145911 -3.0401678 -5.3043448 6.5178821 29.8490201 20.3131579 -39.2466139 21.8347893
1.5268796 -0.3357858 0.2054792 0.953342 -0.741496 -0.132281 -2.2145236 -3.9544145 6.1098921 26.6146444 17.9981968 -43.9533555 22.0497476
1.4648760 -0.3561890 0.1740616 0.807238 -0.652757 -0.112445 -1.5598316 -2.9155093 5.6339017 22.8978175 15.5414012 -47.8852736 22.5890630
1.3958636 -0.3732395 0.1497436 0.668782 -0.552869 -0.089743 -1.0247451 -2.0670871 5.0045105 19.1178328 13.0016219 -51.1124509 22.9562204
1.3212675 -0.3864326 0.1320928 0.540594 -0.446816 -0.067051 -0.6378967 -1.4565093 4.4610479 15.2560100 10.4949205 -53.6139880 23.5819280
1.2420584 -0.3953788 0.1204674 0.421650 -0.337695 -0.046339 -0.3466377 -0.9811789 3.8773923 11.6588745 7.9755363 -55.5096328 23.9447120
1.1583534 -0.3995416 0.1141839 0.313666 -0.229160 -0.028814 -0.1467253 -0.6556006 3.4569926 8.1147286 5.5721518 -56.8424121 24.6017488
1.7352863 -0.2177259 0.5621006 1.690718 -0.987985 -0.038745 -7.2568042 -12.5113533 1.6542261 39.3918444 27.3068129 -5.7290484 21.1354701
1.7545385 -0.2420594 0.4997973 1.597613 -1.019188 -0.079368 -7.1016040 -11.4149549 3.2794123 41.0555548 25.7861012 -11.8786047 20.4850656
1.7583998 -0.2681689 0.4364831 1.480163 -1.034310 -0.115692 -6.5026100 -9.8487723 4.6236324 41.6881175 24.1121765 -18.4042453 20.0100709
1.7468895 -0.2958063 0.3745245 1.340675 -1.029260 -0.142578 -5.5840135 -8.0620796 5.5221335 41.1557494 22.3145766 -25.0237203 19.7808016
1.7204241 -0.3241434 0.3163278 1.184835 -1.000625 -0.156456 -4.5483582 -6.3411110 5.9755217 39.4198870 20.2917402 -31.5119678 19.8095071
1.6800902 -0.3520093 0.2639869 1.020803 -0.947152 -0.156299 -3.5134436 -4.7982460 6.0169339 36.5682218 18.1021871 -37.5714070 20.0610076
1.6275658 -0.3781426 0.2189800 0.856675 -0.870022 -0.143846 -2.6293725 -3.5743437 5.8573590 32.7908430 15.6666649 -42.9229585 20.5036496
1.5648431 -0.4014026 0.1820420 0.699342 -0.773071 -0.122757 -1.8523674 -2.5534830 5.4315090 28.4277600 13.1548571 -47.4722324 21.0845596
1.4938985 -0.4208923 0.1532306 0.552728 -0.661275 -0.097319 -1.2641006 -1.8091853 5.0146811 23.7787554 10.5251194 -51.0549145 21.7411232
1.4164091 -0.4359656 0.1321007 0.419177 -0.540363 -0.071278 -0.7773469 -1.1961831 4.3907090 19.1397459 7.9665995 -53.8748572 22.4088673
1.3335158 -0.4461323 0.1179251 0.298844 -0.414872 -0.047329 -0.4445332 -0.7850786 3.9443507 14.6229098 5.4049953 -55.8418615 23.1194782
1.2455807 -0.4508373 0.1098814 0.191199 -0.289431 -0.027305 -0.1908356 -0.4594326 3.3563416 10.4519362 3.0557912 -57.2848961 23.7445307
1.8173798 -0.2708963 0.5562488 1.530107 -1.109401 -0.045296 -7.4077883 -10.3122919 1.6724388 46.2919075 23.7333011 -6.4295390 18.9766710
1.8326391 -0.2996991 0.4880267 1.411305 -1.145730 -0.089929 -6.4676205 -8.2228903 2.9600721 48.2698908 21.9074129 -13.4673024 18.1160951
1.8302523 -0.3302076 0.4194553 1.266510 -1.158503 -0.126916 -5.2898549 -6.2131521 3.7423629 48.6430198 19.9507893 -20.7898123 17.8187253
1.8103978 -0.3616811 0.3536086 1.100333 -1.141652 -0.149887 -4.0505044 -4.4474915 4.0141559 47.4754990 17.8166520 -28.2016733 17.6418631
1.7741101 -0.3928524 0.2933393 0.923225 -1.093521 -0.156150 -3.1297427 -3.2514716 4.1652963 44.5460529 15.4903207 -35.1702078 18.0174553
1.7232772 -0.4222413 0.2408165 0.744938 -1.014386 -0.146769 -2.3557602 -2.3430988 4.1493175 40.3938964 12.9856934 -41.4919138 18.4736448
1.6603031 -0.4484657 0.1972641 0.575168 -0.909305 -0.125738 -1.8071629 -1.7400659 4.2284946 35.1963439 10.3401330 -46.7496399 19.3357899
1.5876571 -0.4704319 0.1629724 0.418988 -0.784256 -0.098406 -1.2927957 -1.2174032 4.1030194 29.6175015 7.6328842 -50.9546958 20.0807696
1.5074768 -0.4873760 0.1375257 0.280152 -0.647048 -0.069537 -0.8843875 -0.8223923 3.9755212 23.8490534 4.9817893 -54.0394892 21.1123180
1.4213108 -0.4987690 0.1200847 0.157493 -0.503874 -0.043063 -0.5238664 -0.4865730 3.6280297 18.4201182 2.4344629 -56.1955408 21.8659451
1.3299721 -0.5041364 0.1096527 0.051858 -0.360266 -0.020956 -0.2585141 -0.2457831 3.3312457 13.2632479 0.0830131 -57.5695936 22.8417280
1.8925143 -0.3326971 0.5501075 1.321274 -1.251715 -0.049878 -4.9518273 -5.2880915 1.1037360 54.6325874 19.4826065 -7.3161920 16.4859893
1.9015996 -0.3663438 0.4760264 1.172410 -1.286636 -0.095600 -2.8556082 -2.7083317 1.2951832 56.5544746 17.2633065 -15.2929634 15.7601671
1.8906834 -0.4011761 0.4027243 0.997965 -1.286883 -0.128385 -1.2127492 -1.0303665 0.8562504 56.3401660 14.9187770 -23.6003951 15.4988307
1.8604059 -0.4358355 0.3339828 0.807973 -1.247604 -0.142901 -0.4761459 -0.3647928 0.4758702 53.8700245 12.4188017 -31.7035285 15.7504896
1.8126975 -0.4686132 0.2729441 0.615591 -1.168844 -0.138399 -0.4676122 -0.3238510 0.6367322 49.4037019 9.7238131 -39.1625472 16.4125327
1.7503959 -0.4978607 0.2215989 0.432745 -1.056046 -0.118976 -0.7166147 -0.4461351 1.3170557 43.4092716 6.9292927 -45.4431796 17.3631469