# volRat = 0.650000
# viscRat = 5.000000
# alpha = 0.250000
# shRate = 5.500000
# tnum = 6700
# time = 5.111636
VARIABLES = X, Y, Z, U, V, W, F_B0, F_B1, F_B2, F_0, F_1, F_2, T
ZONE N=2562 E=5120 F=FEPOINT ET=TRIANGLE
1.5153951 0.0019977 0.6212299 0.754809 -0.285516 -0.000002 3.7101701 9.8373842 0.0000017 32.6016902 48.5549732 -0.0002500 28.5922232
-1.6258328 0.9628765 0.6212299 0.800033 0.093593 -0.000001 -1.6567394 13.9523255 0.0000039 -25.9142146 67.4527247 -0.0005069 23.3906785
1.6258328 -0.9628765 0.6212299 -0.800032 -0.093593 -0.000001 1.6567434 -13.9523573 0.0000039 25.9137959 -67.4529127 -0.0005008 23.3909267
-1.5153951 -0.0019977 0.6212299 -0.754811 0.285517 -0.000002 -3.7101733 -9.8373929 0.0000017 -32.6007013 -48.5553848 -0.0002487 28.5922755
0.9394268 -0.2355300 1.1203149 0.180216 0.122219 -0.020153 -1.8185109 10.3605950 47.9627988 -0.4957481 16.5857399 102.6211215 29.2273267
0.9394268 -0.2355300 0.1221449 0.180218 0.122220 0.020143 -1.8185856 10.3612646 -47.9655884 -0.4943936 16.5864802 -102.6239284 29.2271107
-0.9394268 0.2355300 1.1203149 -0.180212 -0.122220 -0.020154 1.8186441 -10.3613499 47.9662963 0.4938169 -16.5857796 102.6247746 29.2271565
-0.9394268 0.2355300 0.1221449 -0.180215 -0.122221 0.020145 1.8187181 -10.3620146 -47.9690640 0.4924665 -16.5865401 -102.6275545 29.2269414
-0.1763384 0.4284440 0.8559670 0.451275 -0.223521 0.030725 -4.2073970 -9.5000468 -6.2996978 16.8853740 42.7459383 32.4919401 31.8577984
0.1763384 -0.4284441 0.8559671 -0.451399 0.223254 0.030928 5.0408233 11.3818732 -7.5475341 -16.0665400 -40.9094320 31.2605324 31.8538473
-0.1763378 0.4284454 0.3864918 0.452753 -0.220163 -0.032890 -9.8423358 -22.2236894 14.7348922 11.3582433 30.2402882 -24.2097027 31.8649237
0.1763377 -0.4284456 0.3864917 -0.452862 0.219930 -0.033070 10.6190931 23.9775786 15.8978094 -10.5949366 -28.5294818 -23.0618345 31.8608597
1.5392578 -0.0082566 0.6647535 0.752302 -0.294171 -0.003106 -4.8308308 -12.3851303 -0.9534635 32.2900997 43.5443536 4.5804971 28.4187836
1.5578445 -0.0215476 0.7125703 0.741507 -0.299840 -0.005677 -4.1781923 -10.3331055 -1.8058768 33.6126055 43.0378714 10.3991160 27.8685214
1.5686195 -0.0374185 0.7631345 0.722949 -0.300129 -0.007615 -4.0470457 -9.7126358 -2.7413535 34.0598904 41.7866985 16.2541429 27.6605242
1.5698703 -0.0554572 0.8146489 0.695997 -0.293684 -0.009340 -3.8685034 -9.0856919 -3.6505909 34.0039674 40.0769780 22.2854181 27.2160356
1.5606494 -0.0752300 0.8655405 0.661707 -0.279898 -0.011326 -3.5297960 -8.2009763 -4.3873348 33.2511159 38.3142705 28.4175082 27.1578323
1.5405938 -0.0961618 0.9142409 0.620800 -0.258236 -0.013924 -3.0685859 -7.1469737 -4.8868381 31.8762481 36.2534269 34.4535082 26.9267169
1.5098893 -0.1175519 0.9593176 0.575285 -0.229084 -0.017225 -2.5463795 -6.0420493 -5.1387475 29.7571998 33.9749086 40.2354527 27.0602228
1.4692025 -0.1386335 0.9995965 0.526709 -0.193172 -0.021020 -1.9968214 -4.9231145 -5.1113477 27.1091736 31.4248110 45.6276211 27.0539520
1.4195688 -0.1586581 1.0342566 0.477247 -0.152169 -0.024806 -1.4933329 -3.9211661 -4.9060177 23.9002790 28.7279324 50.4468329 27.3794639
1.3622569 -0.1769735 1.0628645 0.428075 -0.107734 -0.028096 -1.0459716 -3.0214348 -4.5178486 20.4508495 25.8460989 54.6535936 27.5008227
1.2986430 -0.1930797 1.0853485 0.380668 -0.062131 -0.030315 -0.7023231 -2.3368602 -4.1581676 16.7602521 22.8996484 58.1033857 27.9469385
1.2301251 -0.2066553 1.1019374 0.335338 -0.017264 -0.031101 -0.4367059 -1.8012647 -3.8130988 13.1518444 19.8797648 60.8100504 28.1221495
1.1581166 -0.2175602 1.1130817 0.292744 0.025017 -0.030295 -0.1913841 -1.1289289 -2.8552486 9.6419986 17.2345700 63.7062682 28.5845445
1.0841122 -0.2258344 1.1193855 0.252471 0.063361 -0.027891 -0.1088529 -1.4026044 -4.2794311 6.3253848 13.7358852 63.8606153 28.7457078
1.0103264 -0.2316790 1.1215399 0.214951 0.096175 -0.023819 0.1774604 -4.2597576 -16.0071665 3.4462248 8.2683227 54.3265865 29.1808845
1.7375578 -0.9372271 0.6941844 -0.754682 -0.217896 -0.008417 -1.3097614 4.5276492 -0.7050309 41.5785229 -61.7582166 11.3090040 21.1523443
1.7540366 -0.9138580 0.7690054 -0.713052 -0.248105 -0.015724 -1.0744334 3.1322079 -1.0647265 44.4676923 -58.2577094 22.8431799 20.6204886
1.7569922 -0.8798226 0.8430454 -0.652433 -0.266898 -0.020720 -0.5882326 1.4918676 -0.8380101 45.5304358 -52.8943157 34.1373437 20.2303870
1.7458842 -0.8360598 0.9129300 -0.574631 -0.271934 -0.022006 -0.2117728 0.4759764 -0.3995686 44.5018556 -46.1557760 44.0501062 20.1782733
1.7208395 -0.7844494 0.9756363 -0.484400 -0.261894 -0.019390 -0.0659574 0.1325567 -0.1598089 41.7527386 -38.6048199 52.1102658 20.3817335
1.6828744 -0.7273699 1.0289928 -0.387340 -0.237218 -0.014045 -0.1125580 0.2018493 -0.3475634 37.6597815 -30.9073934 58.0610035 20.9244479
1.6336107 -0.6672263 1.0719209 -0.289114 -0.200552 -0.007934 -0.2313783 0.3631098 -0.9159060 32.8411897 -23.5651246 62.1134473 21.6962959
1.5748991 -0.6060885 1.1043481 -0.194270 -0.155922 -0.002955 -0.3056266 0.3977940 -1.5757653 27.8033765 -16.8860795 64.6094588 22.6299972
1.5085116 -0.5455239 1.1269300 -0.106209 -0.107798 -0.000329 -0.3168467 0.2959721 -2.1833578 22.9385403 -10.9386175 65.9933055 23.6619948
1.4359708 -0.4866012 1.1407464 -0.026914 -0.060192 -0.000498 -0.2636313 0.0961153 -2.5239851 18.4414823 -5.7652271 66.6262528 24.7287288
1.3584977 -0.4299867 1.1470488 0.042420 -0.016237 -0.003205 -0.1933963 -0.1220421 -2.7314412 14.4460111 -1.2562431 66.7840461 25.7603872
1.2770265 -0.3760642 1.1471172 0.101315 0.021971 -0.007781 -0.1185630 -0.3165926 -2.7376185 11.0064328 2.6491383 66.6649373 26.7274653
1.1922034 -0.3250282 1.1421683 0.149943 0.053374 -0.013385 -0.0558368 -0.4641645 -2.6309409 8.0023433 6.0390428 66.4726671 27.6648350
1.1041460 -0.2769713 1.1333559 0.187998 0.077807 -0.019176 -0.0134164 -0.8140971 -3.5700247 5.5793242 8.8065873 65.3043877 28.4367033
1.8228833 -0.9045114 0.7005103 -0.698843 -0.331565 -0.009281 0.4283181 -0.9019876 0.1722150 55.6902953 -57.7926693 12.6857556 18.9504516
1.8372807 -0.8729810 0.7807896 -0.641648 -0.364016 -0.016846 1.6932586 -3.0252185 1.2813321 58.5253283 -52.5911593 25.5549721 18.1917190
1.8346072 -0.8311162 0.8582744 -0.564718 -0.378410 -0.020470 2.3782202 -3.6669983 2.6321654 58.2984084 -45.8234118 37.2464692 18.0816558
1.8153221 -0.7805609 0.9292823 -0.473104 -0.373593 -0.019520 2.3490865 -3.1325611 3.4876323 55.5186068 -37.9661654 47.0388750 18.1606216
1.7806693 -0.7238100 0.9909015 -0.372581 -0.349490 -0.014929 1.6331728 -1.8564949 3.1386093 50.5498165 -29.8643106 54.4350354 18.8950528
1.7326666 -0.6635531 1.0414540 -0.270282 -0.309272 -0.008708 0.7814247 -0.7262882 1.9184382 44.5245044 -22.0629955 59.5365846 19.6988359
1.6736683 -0.6021419 1.0805298 -0.171149 -0.257662 -0.003312 0.0758921 -0.0521202 0.2378023 38.0260161 -15.0203725 62.7508511 20.9844008
1.6059278 -0.5413304 1.1086951 -0.079472 -0.200406 -0.000254 -0.2975430 0.1119051 -1.1984276 31.7439222 -8.7782127 64.5371546 22.1284375
1.5313228 -0.4822563 1.1270856 0.002945 -0.142475 -0.000317 -0.4357374 -0.0220453 -2.2869618 25.9035016 -3.3889372 65.3830724 23.5476833
1.4512533 -0.4255616 1.1370764 0.074628 -0.087948 -0.003253 -0.4000357 -0.2685227 -2.7930251 20.8069455 1.2807700 65.6325561 24.6536928
1.3666224 -0.3715445 1.1400583 0.135748 -0.039226 -0.008451 -0.3230249 -0.5251268 -3.0917099 16.2691161 5.2693635 65.5386716 26.0020171
1.2777857 -0.3202808 1.1373371 0.185660 0.002233 -0.014894 -0.2252917 -0.7204097 -3.0935222 12.5109620 8.7185340 65.2269707 26.8964408
1.1842970 -0.2717261 1.1300900 0.224939 0.036171 -0.021707 -0.1586589 -0.9648128 -3.3732769 9.1743754 11.5885935 64.6077050 28.0582339
1.9023437 -0.8566524 0.7056410 -0.613297 -0.452559 -0.009117 6.2534521 -8.4673467 2.0375702 70.2832921 -50.4516386 13.8733213 16.4251972
1.9114221 -0.8169168 0.7899286 -0.538486 -0.481078 -0.014736 8.1665043 -9.2407992 5.1027732 71.8566316 -43.8546536 27.2217030 15.9329708
1.9005961 -0.7678629 0.8693745 -0.446245 -0.485091 -0.015718 8.1049573 -7.6447366 7.5141284 69.6361797 -36.0071453 38.9502728 15.9783542
1.8712650 -0.7119588 0.9400305 -0.343628 -0.464379 -0.012063 6.2534150 -4.7871491 7.8599841 64.3704919 -27.8056444 48.1405682 16.6421712
1.8258524 -0.6521064 0.9993226 -0.238196 -0.422368 -0.006127 3.7077168 -2.1492389 6.0753069 57.2076018 -19.7673540 54.7882721 17.7444550
1.7673252 -0.5909325 1.0462643 -0.136211 -0.364719 -0.000531 1.5366740 -0.5634332 3.2271890 49.2459531 -12.5265489 59.1160316 19.1661849
1.6985724 -0.5303869 1.0811752 -0.042187 -0.298558 0.002692 0.1458882 -0.0151845 0.3905935 41.3448407 -6.0993414 61.6529399 20.7009611
1.6219879 -0.4716864 1.1051872 0.041671 -0.230216 0.002519 -0.4839313 -0.1148467 -1.6547271 34.0610250 -0.5929057 62.9737863 22.2693985
1.5393018 -0.4154595 1.1197830 0.114485 -0.164740 -0.000989 -0.6536968 -0.4567557 -2.8750789 27.5645137 4.1401764 63.5374446 23.7854331
1.4515683 -0.3619439 1.1265009 0.175891 -0.105308 -0.007052 -0.5903235 -0.7924009 -3.3811468 22.0001205 8.1776001 63.6360315 25.1651700
1.3591724 -0.3111562 1.1267767 0.226180 -0.053727 -0.014645 -0.4649544 -1.0552225 -3.5347128 17.1838264 11.6642264 63.4921262 26.4502978
1.2617624 -0.2630262 1.1219062 0.265204 -0.010322 -0.022738 -0.3287005 -1.2037426 -3.4155969 13.1286260 14.6020321 63.3070030 27.5884597
1.9712197 -0.7925792 0.7095707 -0.491486 -0.570026 -0.006956 16.8640321 -14.5092103 4.7068009 83.0468798 -39.9164701 14.3895870 13.9543253
1.9718083 -0.7455500 0.7961152 -0.400170 -0.587127 -0.009381 17.9351930 -12.2910766 9.7539543 82.3715314 -32.4260896 27.7180175 13.6446578
1.9504958 -0.6911731 0.8756440 -0.296902 -0.573618 -0.006666 14.8556395 -7.7553299 12.1351156 77.5203094 -24.4700962 38.8188455 14.3507417
1.9098200 -0.6324546 0.9443244 -0.190173 -0.532834 -0.000986 9.7311353 -3.4396059 10.8774552 69.8360745 -16.6012886 47.3186740 15.4665503
1.8533001 -0.5722412 1.0002105 -0.087204 -0.471207 0.004793 4.7813064 -0.7826076 7.0125678 60.6747726 -9.4343986 53.1925263 17.2239963
1.7845609 -0.5126675 1.0430917 0.007023 -0.397523 0.008180 1.4589465 0.0942627 2.7520951 51.3450681 -3.0225862 56.9103000 18.9465698
1.7066707 -0.4550316 1.0739195 0.090484 -0.319587 0.007720 -0.2833420 -0.0997933 -0.6815085 42.5497820 2.4654510 59.1143757 20.9410214
1.6218654 -0.3999561 1.0942172 0.162123 -0.243755 0.003558 -0.8845843 -0.6420164 -2.7077778 34.7625900 7.1855252 60.2534440 22.5716950
1.5315289 -0.3476315 1.1056510 0.222319 -0.174064 -0.003613 -0.9581308 -1.1704397 -3.7439675 27.9692265 11.2059916 60.7821068 24.3537697
1.4362770 -0.2980264 1.1098137 0.271101 -0.112657 -0.012557 -0.7890985 -1.4928679 -3.9669805 22.2269801 14.6281846 60.9414230 25.6854835
1.3360344 -0.2510451 1.1081408 0.308848 -0.060443 -0.022078 -0.6085655 -1.7140173 -3.9895543 17.3068038 17.5208121 60.9022623 27.1354776
2.0237668 -0.7132768 0.7118607 -0.332824 -0.668429 -0.003084 29.3564858 -14.5327568 7.3187799 91.3833583 -27.2711403 14.1911925 11.9110323
2.0133031 -0.6611934 0.7986385 -0.230675 -0.666463 -0.000995 26.4822047 -9.0803401 13.0395720 87.9821436 -19.9200884 26.7964551 12.2873239
1.9801529 -0.6044876 0.8763457 -0.124628 -0.631097 0.004640 18.7005859 -3.5116273 13.9780429 80.7293934 -12.6183502 37.1201435 13.5146888
1.9280065 -0.5461201 0.9417038 -0.022937 -0.569402 0.010934 10.1840337 -0.1601520 10.5013412 71.2133731 -5.7672271 44.8151075 15.3593500
1.8611153 -0.4883596 0.9935595 0.069402 -0.491241 0.014672 3.8384494 0.7203267 5.2228630 60.8541750 0.4449295 50.1410167 17.4658808
1.7832955 -0.4325729 1.0323824 0.149939 -0.405976 0.014316 0.3144753 0.1379369 0.5520426 50.8662343 5.7879188 53.5229936 19.6066962
1.6974298 -0.3793789 1.0595505 0.218483 -0.321535 0.009616 -1.1161776 -0.8445162 -2.4992017 41.8098549 10.4277484 55.6029037 21.6571725
1.6053899 -0.3289262 1.0767809 0.275294 -0.242788 0.001467 -1.4112548 -1.6455157 -4.0112495 33.9649237 14.3436435 56.7976174 23.5343745
1.5081584 -0.2811390 1.0857948 0.321118 -0.172780 -0.008790 -1.2443584 -2.1138759 -4.4900519 27.2340214 17.7183538 57.4754106 25.1960361
1.4059996 -0.2358843 1.0881759 0.356132 -0.112523 -0.019767 -0.9574581 -2.2967610 -4.4056116 21.5809083 20.5676206 57.8534246 26.6726583
2.0546242 -0.6225542 0.7121034 -0.146365 -0.731279 0.001929 36.6463087 -7.1875801 8.4379614 93.9479784 -14.6177638 13.3585012 10.8593969
2.0319026 -0.5687388 0.7970432 -0.042957 -0.706171 0.008001 28.2017556 -1.4698341 12.9733755 88.2342846 -8.0995336 24.9913673 11.8395094
1.9871083 -0.5131367 0.8713480 0.055555 -0.649608 0.015202 16.6185508 1.7590613 11.7109529 79.3577607 -1.7875713 34.3846830 13.7909471
1.9246985 -0.4580580 0.9325538 0.143685 -0.571629 0.020094 7.0619012 2.0496890 6.9122063 68.9129820 4.0193404 41.3941240 15.9281490
1.8490920 -0.4049015 0.9802386 0.219305 -0.483129 0.020509 1.2472220 0.6417550 1.6181842 58.3015015 9.1599213 46.2900760 18.4147541
1.7638590 -0.3542781 1.0153322 0.282522 -0.393090 0.015944 -1.2891605 -1.0236414 -2.1623977 48.4167332 13.6188206 49.5407023 20.5687002
1.6714710 -0.3063036 1.0394163 0.334269 -0.307867 0.007300 -1.9905862 -2.2824152 -4.2571025 39.6744184 17.4401452 51.6635791 22.7666358
1.5733932 -0.2608638 1.0542577 0.375424 -0.231016 -0.003940 -1.8138649 -2.8912145 -4.9098585 32.1852700 20.7281811 53.0507847 24.4933197
1.4702904 -0.2177944 1.0615567 0.406619 -0.164199 -0.016194 -1.4346577 -3.1035231 -4.9025277 25.8210727 23.5181261 53.9979790 26.2568515
2.0606850 -0.5266193 0.7101855 0.049645 -0.748638 0.006595 33.1605492 2.3673875 7.2481366 91.2657898 -3.3333891 12.2325710 11.1749511
2.0262681 -0.4745558 0.7915207 0.143635 -0.702611 0.015184 21.2266626 4.6128021 9.3595476 84.0073021 2.2825316 22.7434087 12.8211510
1.9714751 -0.4229031 0.8613795 0.226376 -0.630951 0.021935 9.7372855 3.7608262 6.6263216 74.4472202 7.6481802 31.2273403 15.0664475
1.9008939 -0.3730334 0.9180983 0.295784 -0.544646 0.024164 2.0757846 1.2242194 1.9723867 64.0227293 12.4930347 37.5819844 17.5154776
1.8186189 -0.3255358 0.9617717 0.352557 -0.453727 0.020766 -1.6009676 -1.3457116 -2.0223513 53.8460966 16.7712512 42.1751338 19.9094266
1.7277373 -0.2804997 0.9935569 0.397862 -0.365449 0.012590 -2.6806625 -3.0897723 -4.3801598 44.6682227 20.4667163 45.3941192 22.1459582
1.6302811 -0.2377887 1.0150880 0.433370 -0.284526 0.001069 -2.5303144 -3.9008821 -5.2614836 36.6135588 23.6911733 47.6875376 24.1400881
1.5273947 -0.1972214 1.0281027 0.459623 -0.213174 -0.011894 -2.0153259 -4.0826247 -5.2812977 29.7563536 26.4215175 49.2787418 25.8773762
2.0422638 -0.4322737 0.7063955 0.233985 -0.722529 0.009650 21.0085688 6.9290182 4.4590086 84.7637617 6.3671223 11.0344552 12.7266017
1.9981114 -0.3845381 0.7829087 0.311198 -0.662912 0.018597 10.2604497 4.9761669 4.4275576 76.8726439 11.1573190 20.4644476 14.6010163
1.9356719 -0.3383881 0.8477924 0.374440 -0.584916 0.023460 2.0857194 1.3995148 1.3968425 67.4505242 15.6377070 28.0465644 17.0223422
1.8591444 -0.2943625 0.8999864 0.424413 -0.498384 0.022486 -2.1409311 -1.9241869 -2.0086613 57.7729575 19.6669341 33.8879028 19.3128060
1.7720665 -0.2525264 0.9398670 0.463165 -0.411654 0.015969 -3.5178936 -4.1503545 -4.3918005 48.6123965 23.2759273 38.2522630 21.7129101
1.6770426 -0.2127361 0.9686702 0.492460 -0.330027 0.005224 -3.3438472 -5.1029931 -5.3915679 40.3994111 26.4109472 41.4718034 23.6477414
1.5757687 -0.1748165 0.9880149 0.513482 -0.256824 -0.007652 -2.7014442 -5.2685141 -5.5215056 33.2357693 29.1317952 43.8352886 25.6084452
2.0026324 -0.3448091 0.7013029 0.390954 -0.665387 0.010477 7.6207454 4.5281543 1.5995241 76.0579782 14.6519309 9.8637915 15.0768041
1.9511782 -0.3025693 0.7723404 0.449085 -0.600950 0.018090 0.7794664 0.5954582 0.3345292 68.3184038 18.6561218 18.2414616 17.1184100
1.8832964 -0.2621520 0.8320629 0.493646 -0.524437 0.020249 -3.1685960 -3.0782192 -2.1178004 59.6984613 22.4442049 25.0835249 19.3510971
1.8025794 -0.2235786 0.8797717 0.526585 -0.443765 0.016454 -4.4787987 -5.4946235 -4.1977650 51.1436889 25.8806160 30.4720273 21.5458047
1.7120550 -0.1867081 0.9159796 0.550375 -0.365318 0.007624 -4.2292183 -6.5112243 -5.2662863 43.1247843 28.9606860 34.6368394 23.6099936
1.6139902 -0.1513976 0.9419566 0.566267 -0.293031 -0.004231 -3.4093210 -6.5418595 -5.4613944 36.0093708 31.6501055 37.8058455 25.4638230
1.9464090 -0.2669931 0.6955225 0.514268 -0.592963 0.009325 -1.6097948 -1.4074015 -0.3387459 66.6926929 21.6086296 8.7801807 17.7619798
1.8897457 -0.2301977 0.7608520 0.554993 -0.530497 0.014439 -4.4875308 -4.7662693 -1.9374404 59.7037243 24.9855418 16.2991012 19.5371618
1.8179485 -0.1948408 0.8153681 0.583973 -0.460307 0.013921 -5.4630268 -7.0692564 -3.6763989 52.1967520 28.2332539 22.5006976 21.6710498
1.7340988 -0.1607593 0.8585636 0.603442 -0.388551 0.007861 -5.0361042 -7.9488854 -4.7441069 44.8433993 31.2106189 27.4795544 23.5152638
1.6409409 -0.1278686 0.8910666 0.615436 -0.320263 -0.002054 -4.0896303 -7.8594948 -5.0961339 37.9869303 33.9139369 31.3860418 25.4400153
1.8780572 -0.1993644 0.6895390 0.605321 -0.518191 0.006960 -5.8211073 -6.8410166 -1.2390960 57.8273847 27.5205707 7.8142860 20.4090035
1.8175300 -0.1672288 0.7491474 0.632116 -0.461570 0.009289 -6.2661581 -8.6669507 -2.7386922 51.7673169 30.4797617 14.5680398 22.1332776
1.7425285 -0.1358226 0.7983797 0.649372 -0.399759 0.006234 -5.6969708 -9.3479771 -3.8727095 45.3016092 33.3269849 20.2101562 23.8897427
1.6559761 -0.1051047 0.8368829 0.658718 -0.337843 -0.001245 -4.6413707 -9.0676592 -4.3938863 39.0685151 35.9499840 24.7803235 25.6050871
1.8011449 -0.1411186 0.6836398 0.669259 -0.448843 0.003943 -6.6746991 -9.9979562 -1.4429076 50.0062975 32.5888560 7.0486810 22.8135951
1.7372423 -0.1125127 0.7375173 0.685582 -0.399166 0.003529 -6.0203185 -10.3981377 -2.6648845 44.8400597 35.2239017 13.1631712 24.1992297
1.6590170 -0.0838318 0.7811755 0.694105 -0.345890 -0.001349 -4.9805567 -10.0160153 -3.4065448 39.3347672 37.7576890 18.2164644 25.8853259
1.7182350 -0.0908887 0.6779118 0.712003 -0.388289 0.001164 -6.0540396 -11.1404311 -1.3245202 43.2260120 37.0036512 6.2953172 24.9883008
1.6505140 -0.0645198 0.7257204 0.720671 -0.345191 -0.001668 -5.0518563 -10.5706629 -2.2456076 38.8155370 39.4155019 11.7864920 26.3138288
1.6310047 -0.0472008 0.6720981 0.738321 -0.336554 -0.001570 -4.9302322 -10.8450971 -1.0765446 37.6041547 40.7398579 5.7444076 26.8050236
1.5989896 -0.0306860 0.6212299 0.748399 -0.319509 -0.000003 -5.3155650 -12.4878282 -0.0000002 35.2885052 41.0976781 -0.0001130 27.4896136
1.6843412 -0.0700249 0.6212299 0.728615 -0.367593 -0.000002 -5.2887118 -10.5154278 -0.0000002 41.0364175 38.9963662 -0.0000556 25.6099312
1.7684494 -0.1161002 0.6212299 0.695300 -0.423768 -0.000002 -6.6182568 -10.8934071 -0.0000002 47.1372107 34.7289963 0.0000243 23.8046953
1.8483968 -0.1698385 0.6212299 0.643085 -0.489834 -0.000002 -6.5726735 -8.6581599 -0.0000002 54.5178735 30.0444216 -0.0000953 21.3623958
1.9216347 -0.2325290 0.6212299 0.566456 -0.563737 -0.000002 -4.1224142 -4.1581053 -0.0000001 63.0486358 24.5557209 0.0000629 18.8933948
1.9848955 -0.3053030 0.6212299 0.459558 -0.640173 -0.000002 3.0332906 2.1878206 0.0000001 72.4754305 18.1390673 -0.0000782 16.0512172
2.0339768 -0.3884208 0.6212299 0.318415 -0.708548 -0.000002 15.5314232 7.0284265 0.0000003 81.8722388 10.4910881 0.0000353 13.5318809
2.0640425 -0.4803165 0.6212299 0.144820 -0.753475 -0.000002 30.3817447 5.9320496 0.0000006 89.9188501 1.4797035 -0.0000757 11.3445456
2.0707695 -0.5768627 0.6212299 -0.049953 -0.759605 -0.000002 39.5848400 -2.4779084 0.0000008 94.9061337 -9.0085398 0.0000363 10.4566678
2.0521202 -0.6716613 0.6212299 -0.246078 -0.718683 -0.000001 37.2470297 -12.6207253 0.0000008 95.3027049 -21.1280974 -0.0000936 10.7646377
2.0095875 -0.7577726 0.6212299 -0.422143 -0.635177 -0.000002 25.4134422 -16.7779385 0.0000006 89.8832390 -34.1617876 0.0000025 12.5047647
1.9478150 -0.8299428 0.6212299 -0.563627 -0.523637 -0.000002 12.2130864 -13.0717196 0.0000003 78.9353196 -46.1662212 -0.0000953 14.8129462
1.8728899 -0.8857702 0.6212299 -0.666934 -0.401808 -0.000002 3.2364039 -5.3413403 0.0000001 64.7656434 -55.1763403 -0.0000560 17.4970813
1.7907075 -0.9254246 0.6212299 -0.735832 -0.283521 -0.000001 -0.7414860 1.9116288 -0.0000000 49.9970786 -60.5124527 -0.0002254 19.7601750
1.7068037 -0.9505729 0.6212299 -0.778664 -0.174870 -0.000002 -1.4558413 6.4213006 -0.0000001 36.9732734 -65.2469932 -0.0001757 21.9990500
1.6485605 -0.9573337 0.5575809 -0.788145 -0.116815 0.006148 -1.5741220 10.5535807 1.2591837 28.7612024 -63.3813542 -8.7956804 23.1294663
1.6648217 -0.9412888 0.4889851 -0.759815 -0.141306 0.012305 -1.3604849 7.4120364 2.0350760 31.5259745 -61.1151483 -19.5340141 22.5209959
1.6715496 -0.9147159 0.4188548 -0.713261 -0.159903 0.017539 -1.2064367 5.6022317 2.5352828 32.9216364 -57.3214460 -30.0088577 22.2836800
1.6668246 -0.8781186 0.3508674 -0.650026 -0.169958 0.019924 -0.9752775 4.0006380 2.6631341 33.1676762 -51.9564916 -39.7477657 21.9250804
1.6498925 -0.8327317 0.2880285 -0.572177 -0.169129 0.019014 -0.7500227 2.7976855 2.6019214 31.9038668 -45.4345799 -48.1251134 22.0354234
1.6209322 -0.7804284 0.2327390 -0.484338 -0.156536 0.015117 -0.5438128 1.8882334 2.4032838 29.5633652 -38.3786134 -54.8053175 22.1377934
1.5808319 -0.7233653 0.1865400 -0.391218 -0.132889 0.009516 -0.4132882 1.3603883 2.3713140 26.3142017 -31.2363845 -59.7308378 22.6884684
1.5309070 -0.6636468 0.1500698 -0.297937 -0.100565 0.003840 -0.3067944 0.9693353 2.3654086 22.6865465 -24.4716537 -63.0955592 23.1831420
1.4726242 -0.6030759 0.1231945 -0.207893 -0.062887 -0.000377 -0.2287570 0.6964136 2.5051594 18.8458044 -18.2664378 -65.2087072 24.0888277
1.4074022 -0.5430499 0.1052272 -0.124454 -0.023474 -0.002303 -0.1483636 0.4284881 2.5369909 15.2174491 -12.7065320 -66.4255182 24.7717765
1.3365114 -0.4845685 0.0951638 -0.049152 0.014521 -0.001710 -0.0808036 0.2014371 2.6245980 11.8098283 -7.7898823 -67.0193219 25.7906862
1.2610646 -0.4283125 0.0918499 0.016634 0.048618 0.001075 -0.0202190 -0.0053066 2.5520952 8.8089313 -3.5020435 -67.2239292 26.4993650
1.1821043 -0.3747597 0.0940935 0.072591 0.077130 0.005425 0.0289105 -0.1957500 2.7963170 6.1736778 0.2572141 -67.0575243 27.4781052
1.1007518 -0.3242951 0.1007092 0.118313 0.099195 0.010572 0.0529879 -0.2811546 2.1938419 4.0786135 3.4456203 -66.9324052 28.0260660
1.0190095 -0.2776210 0.1103793 0.154584 0.114204 0.015869 -0.0778225 0.4063635 -2.2655931 1.9155788 7.6267420 -73.5782760 28.9463588
1.6310047 -0.0472008 0.5703616 0.738322 -0.336554 0.001566 -4.9302340 -10.8451009 1.0765446 37.6039764 40.7398880 -5.7444325 26.8049371
1.6505140 -0.0645198 0.5167394 0.720671 -0.345191 0.001663 -5.0518548 -10.5706598 2.2456066 38.8157175 39.4154706 -11.7863068 26.3138824
1.6590170 -0.0838318 0.4612843 0.694106 -0.345890 0.001345 -4.9805595 -10.0160211 3.4065463 39.3346730 37.7575962 -18.2167042 25.8851887
1.6559761 -0.1051047 0.4055769 0.658719 -0.337843 0.001239 -4.6413689 -9.0676557 4.3938842 39.0686731 35.9500144 -24.7801010 25.6052105
1.6409410 -0.1278686 0.3513932 0.615438 -0.320262 0.002050 -4.0896323 -7.8594986 5.0961360 37.9869732 33.9137313 -31.3862416 25.4397875
1.6139902 -0.1513976 0.3005032 0.566269 -0.293031 0.004225 -3.4093205 -6.5418583 5.4613931 36.0095335 31.6501827 -37.8056381 25.4640011
1.5757687 -0.1748165 0.2544448 0.513484 -0.256823 0.007647 -2.7014444 -5.2685143 5.5215055 33.2357458 29.1315050 -43.8355385 25.6082466
1.5273947 -0.1972214 0.2143571 0.459624 -0.213174 0.011887 -2.0153276 -4.0826280 5.2813017 29.7566992 26.4216426 -49.2784881 25.8775098
1.4702904 -0.2177944 0.1809031 0.406621 -0.164198 0.016188 -1.4346559 -3.1035192 4.9025212 25.8210106 23.5176576 -53.9983000 26.2566931
1.4059996 -0.2358843 0.1542838 0.356135 -0.112524 0.019760 -0.9574591 -2.2967636 4.4056163 21.5811863 20.5678799 -57.8532072 26.6729221
1.3360344 -0.2510451 0.1343190 0.308850 -0.060442 0.022071 -0.6085665 -1.7140200 3.9895603 17.3068869 17.5200652 -60.9025670 27.1351977
1.2617624 -0.2630262 0.1205535 0.265207 -0.010323 0.022731 -0.3286953 -1.2037233 3.4155421 13.1287948 14.6022766 -63.3069716 27.5888438
1.1842970 -0.2717261 0.1123698 0.224943 0.036173 0.021699 -0.1586604 -0.9648220 3.3733089 9.1742597 11.5876919 -64.6079147 28.0581047
1.1041460 -0.2769713 0.1091038 0.188002 0.077807 0.019167 -0.0134174 -0.8141544 3.5702757 5.5794205 8.8064587 -65.3041678 28.4368596
1.7182350 -0.0908887 0.5645480 0.712003 -0.388289 -0.001169 -6.0540376 -11.1404274 1.3245194 43.2260799 37.0036603 -6.2952379 24.9883643
1.7372423 -0.1125127 0.5049425 0.685583 -0.399166 -0.003534 -6.0203200 -10.3981404 2.6648848 44.8399152 35.2239121 -13.1633927 24.1991983
1.7425285 -0.1358226 0.4440801 0.649373 -0.399759 -0.006239 -5.6969696 -9.3479751 3.8727083 45.3016740 33.3270749 -20.2099239 23.8898154
1.7340988 -0.1607593 0.3838962 0.603444 -0.388551 -0.007865 -5.0361058 -7.9488880 4.7441081 44.8431780 31.2105777 -27.4798309 23.5152065
1.7120550 -0.1867081 0.3264802 0.550377 -0.365318 -0.007629 -4.2292182 -6.5112243 5.2662859 43.1247818 28.9608751 -34.6366195 23.6101163
1.6770426 -0.2127361 0.2737895 0.492463 -0.330027 -0.005229 -3.3438472 -5.1029931 5.3915676 40.3992123 26.4108572 -41.4720020 23.6475965
1.6302811 -0.2377887 0.2273718 0.433372 -0.284527 -0.001074 -2.5303148 -3.9008827 5.2614841 36.6135205 23.6914346 -47.6873417 24.1402387
1.5733933 -0.2608638 0.1882021 0.375427 -0.231017 0.003935 -1.8138647 -2.8912141 4.9098577 32.1849203 20.7281251 -53.0509317 24.4931751
1.5081584 -0.2811390 0.1566650 0.321121 -0.172780 0.008784 -1.2443600 -2.1138786 4.4900574 27.2341174 17.7186992 -57.4751635 25.1960697
1.4362770 -0.2980264 0.1326461 0.271105 -0.112657 0.012550 -0.7890986 -1.4928680 3.9669806 22.2265516 14.6281364 -60.9415159 25.6853425
1.3591724 -0.3111562 0.1156831 0.226183 -0.053728 0.014637 -0.4649553 -1.0552244 3.5347190 17.1838768 11.6648519 -63.4918498 26.4503495
1.2777858 -0.3202808 0.1051227 0.185664 0.002232 0.014887 -0.2252928 -0.7204132 3.0935368 12.5108060 8.7185354 -65.2269580 26.8961112
1.1922034 -0.3250282 0.1002915 0.149947 0.053373 0.013376 -0.0558371 -0.4641667 2.6309527 8.0024314 6.0398945 -66.4724362 27.6649271
1.8011449 -0.1411186 0.5588200 0.669259 -0.448843 -0.003948 -6.6747014 -9.9979597 1.4429077 50.0062959 32.5888268 -7.0486530 22.8135432
1.8175300 -0.1672288 0.4933124 0.632116 -0.461570 -0.009294 -6.2661571 -8.6669492 2.7386914 51.7673985 30.4797394 -14.5679542 22.1333130
1.8179486 -0.1948408 0.4270917 0.583974 -0.460307 -0.013925 -5.4630287 -7.0692589 3.6763998 52.1967473 28.2331681 -22.5007913 21.6709857
1.8025794 -0.2235786 0.3626881 0.526586 -0.443765 -0.016459 -4.4787967 -5.4946211 4.1977628 51.1438732 25.8806248 -30.4718406 21.5458490
1.7720665 -0.2525264 0.3025928 0.463167 -0.411654 -0.015973 -3.5178955 -4.1503567 4.3918026 48.6123692 23.2757432 -38.2524201 21.7128413
1.7277373 -0.2804997 0.2489029 0.397864 -0.365449 -0.012595 -2.6806609 -3.0897704 4.3801569 44.6684311 20.4667908 -45.3939554 22.1460693
1.6714710 -0.3063036 0.2030434 0.334271 -0.307867 -0.007305 -1.9905869 -2.2824159 4.2571036 39.6744717 17.4398203 -51.6637105 22.7665071
1.6053899 -0.3289262 0.1656789 0.275296 -0.242789 -0.001472 -1.4112535 -1.6455142 4.0112457 33.9651697 14.3437002 -56.7975385 23.5345842
1.5315290 -0.3476314 0.1368088 0.222322 -0.174063 0.003607 -0.9581307 -1.1704397 3.7439672 27.9691686 11.2055649 -60.7822375 24.3536867
1.4515683 -0.3619439 0.1159589 0.175893 -0.105308 0.007045 -0.5903218 -0.7923985 3.3811364 22.0005158 8.1775440 -63.6360228 25.1653588
1.3666224 -0.3715445 0.1024015 0.135752 -0.039225 0.008444 -0.3230248 -0.5251266 3.0917086 16.2688619 5.2686651 -65.5387888 26.0020164
1.2770265 -0.3760642 0.0953425 0.101318 0.021970 0.007774 -0.1185621 -0.3165902 2.7375979 11.0066732 2.6490228 -66.6649969 26.7277817
1.8780572 -0.1993644 0.5529208 0.605321 -0.518191 -0.006964 -5.8211061 -6.8410152 1.2390954 57.8273563 27.5206229 -7.8142313 20.4090263
1.8897457 -0.2301977 0.4816078 0.554994 -0.530497 -0.014442 -4.4875303 -4.7662687 1.9374399 59.7036430 24.9855500 -16.2992426 19.5371403
1.8832964 -0.2621520 0.4103969 0.493647 -0.524437 -0.020254 -3.1685955 -3.0782187 2.1177999 59.6984339 22.4442934 -25.0834448 19.3511268
1.8591444 -0.2943625 0.3424734 0.424415 -0.498384 -0.022490 -2.1409306 -1.9241865 2.0086607 57.7727645 19.6669416 -33.8880737 19.3127718
1.8186189 -0.3255358 0.2806881 0.352559 -0.453727 -0.020771 -1.6009681 -1.3457120 2.0223519 53.8461441 16.7713839 -42.1749856 19.9094218
1.7638591 -0.3542781 0.2271276 0.282525 -0.393090 -0.015948 -1.2891616 -1.0236422 2.1623994 48.4164036 13.6188322 -49.5408644 20.5686547
1.6974298 -0.3793789 0.1829093 0.218485 -0.321536 -0.009622 -1.1161777 -0.8445163 2.4992019 41.8098880 10.4280197 -55.6027506 21.6571557
1.6218654 -0.3999561 0.1482426 0.162126 -0.243756 -0.003564 -0.8845857 -0.6420174 2.7077821 34.7622759 7.1855852 -60.2535023 22.5715444
1.5393018 -0.4154595 0.1226768 0.114487 -0.164741 0.000983 -0.6536980 -0.4567565 2.8750838 27.5645585 4.1405587 -63.5373089 23.7854129
1.4512533 -0.4255616 0.1053834 0.074632 -0.087949 0.003246 -0.4000369 -0.2685235 2.7930331 20.8066120 1.2810854 -65.6325480 24.6535231
1.3584977 -0.4299867 0.0954109 0.042423 -0.016238 0.003198 -0.1933968 -0.1220424 2.7314476 14.4462915 -1.2557193 -66.7839315 25.7601978
1.9464090 -0.2669931 0.5469373 0.514268 -0.592963 -0.009329 -1.6097953 -1.4074020 0.3387459 66.6927393 21.6085579 -8.7802071 17.7619757
1.9511782 -0.3025693 0.4701194 0.449085 -0.600950 -0.018094 0.7794677 0.5954592 -0.3345297 68.3184620 18.6561201 -18.2413516 17.1184247
1.9356719 -0.3383881 0.3946674 0.374441 -0.584916 -0.023464 2.0857205 1.3995155 -1.3968431 67.4505812 15.6375881 -28.0465873 17.0223273
1.9008939 -0.3730334 0.3243615 0.295785 -0.544646 -0.024169 2.0757847 1.2242195 -1.9723867 64.0228396 12.4930437 -37.5818881 17.5155320
1.8490920 -0.4049015 0.2622212 0.219307 -0.483129 -0.020514 1.2472223 0.6417551 -1.6181844 58.3015168 9.1597458 -46.2901232 18.4147483
1.7832956 -0.4325729 0.2100773 0.149940 -0.405976 -0.014321 0.3144772 0.1379377 -0.5520458 50.8664995 5.7878763 -53.5228939 19.6067731