# volRat = 0.650000
# viscRat = 5.000000
# alpha = 0.250000
# shRate = 5.500000
# tnum = 1100
# time = 0.484000
VARIABLES = X, Y, Z, U, V, W, F_B0, F_B1, F_B2, F_0, F_1, F_2, T
ZONE N=2562 E=5120 F=FEPOINT ET=TRIANGLE
1.5233326 0.0426835 0.6212299 0.736269 -0.439527 0.000000 18.6607097 51.7783133 0.0000119 48.1792039 91.3615029 -0.0000001 30.6546463
-1.7292491 0.9083223 0.6212299 0.832309 0.396046 -0.000000 -4.5742663 15.6294855 0.0000032 -42.6496584 70.3213916 -0.0000017 23.5254630
1.7292491 -0.9083223 0.6212299 -0.832309 -0.396046 0.000000 4.5742665 -15.6294861 0.0000031 42.6496586 -70.3213924 -0.0000018 23.5254630
-1.5233326 -0.0426835 0.6212299 -0.736269 0.439527 -0.000000 -18.6607112 -51.7783172 0.0000119 -48.1792060 -91.3615064 0.0000004 30.6546461
0.9931677 -0.0499421 1.0546873 0.388591 -0.067144 -0.060547 2.3157243 25.8562091 38.0285911 8.0460475 50.1053083 87.7111434 32.6012183
0.9931677 -0.0499421 0.1877725 0.388591 -0.067145 0.060547 2.3157671 25.8565460 -38.0289809 8.0461162 50.1056630 -87.7115328 32.6012254
-0.9931677 0.0499421 1.0546873 -0.388591 0.067144 -0.060547 -2.3157241 -25.8562070 38.0285886 -8.0460487 -50.1053070 87.7111401 32.6012190
-0.9931677 0.0499421 0.1877725 -0.388591 0.067145 0.060547 -2.3157669 -25.8565437 -38.0289783 -8.0461148 -50.1056608 -87.7115298 32.6012251
-0.0414689 0.3573659 0.8457229 0.451388 -0.152379 0.030421 -12.7328782 -33.3411723 -22.1604714 10.6541802 31.6783136 25.5234559 34.2907131
0.0414689 -0.3573659 0.8457229 -0.451388 0.152379 0.030421 12.7325381 33.3403161 -22.1597529 -10.6545247 -31.6792014 25.5241369 34.2907149
-0.0414689 0.3573658 0.3967369 0.451387 -0.152380 -0.030420 -12.7260387 -33.3232685 22.1485016 10.6610774 31.6963622 -25.5355382 34.2907324
0.0414689 -0.3573658 0.3967368 -0.451387 0.152380 -0.030420 12.7259986 33.3231559 22.1484398 -10.6611179 -31.6964734 -25.5356043 34.2907315
1.5383354 0.0368865 0.6470060 0.734503 -0.447988 -0.002317 -9.6659338 -26.1656235 -1.1549386 29.1699195 36.1010172 2.3173167 30.6491875
1.5502826 0.0304327 0.6753931 0.729982 -0.453680 -0.004484 -2.6329164 -6.9522447 -0.6952989 36.6050427 53.1641958 7.0122061 30.2292067
1.5576963 0.0236774 0.7060297 0.722969 -0.456391 -0.006611 -4.9344904 -12.7924707 -2.0474401 34.5348047 46.2328410 9.9723985 30.2296791
1.5592555 0.0169000 0.7384482 0.712970 -0.454951 -0.008894 -2.6301619 -6.7514019 -1.5207167 36.9064459 51.3380042 15.1507783 29.9237336
1.5538168 0.0102959 0.7722627 0.700338 -0.448451 -0.011490 -3.9217976 -10.0742113 -2.9778470 35.0084935 46.9897665 18.4895156 30.0556270
1.5404543 0.0040067 0.8069280 0.684658 -0.436046 -0.014718 -3.2931895 -8.5727852 -3.1798327 34.5642588 47.3015712 23.2375831 29.9311670
1.5185461 -0.0018962 0.8417485 0.666224 -0.417578 -0.018745 -2.9299426 -7.8411489 -3.5357335 33.1471405 46.7522355 27.8382329 30.2272167
1.4878276 -0.0074098 0.8759385 0.644692 -0.392788 -0.023782 -2.6083107 -7.2914996 -3.9025326 31.1751048 45.7482024 32.4193774 30.2851378
1.4483865 -0.0125922 0.9087081 0.620468 -0.362133 -0.029616 -2.1945704 -6.5212542 -4.0670622 28.7225242 44.9295611 36.9349992 30.7306827
1.4006165 -0.0175459 0.9393389 0.593494 -0.326087 -0.036170 -1.7878071 -5.7570999 -4.1251915 25.9690091 43.8480046 41.3303752 30.8850881
1.3451554 -0.0224002 0.9672348 0.564329 -0.285813 -0.042897 -1.4218568 -5.0716331 -4.1320113 22.8331596 42.6353136 45.4408319 31.4204814
1.2828362 -0.0272937 0.9919464 0.532843 -0.242342 -0.049232 -1.0516290 -4.2647592 -3.9230271 19.6209707 41.2372867 49.4769556 31.5914948
1.2146971 -0.0323632 1.0131709 0.499390 -0.197017 -0.054545 -0.7922156 -3.7771987 -3.9077910 16.1765598 39.4085617 53.0788693 32.1017202
1.1420579 -0.0377421 1.0307512 0.463756 -0.151151 -0.058303 -0.7915819 -4.6546645 -5.4112451 12.6390524 35.9922150 54.9821754 32.2163762
1.0671596 -0.0435517 1.0445873 0.426833 -0.106690 -0.059618 -0.9964197 -7.8096201 -10.2436234 8.9662573 30.8466456 53.8556824 32.6434711
1.8463250 -0.8523500 0.7189906 -0.730074 -0.559930 -0.012488 1.5940990 -2.8331170 0.6762081 63.8790867 -60.0750133 16.7946171 20.3920559
1.8561090 -0.8100798 0.8140664 -0.649889 -0.590761 -0.019985 2.8193947 -4.1695511 2.2606074 65.9751831 -52.7741096 32.5309874 19.8961732
1.8484115 -0.7517425 0.9010713 -0.540960 -0.602454 -0.022031 3.5599611 -4.2797868 4.1282509 64.9204337 -42.7534716 46.1659350 19.6414615
1.8243862 -0.6808607 0.9748255 -0.410795 -0.592511 -0.018355 3.2570790 -2.9878799 4.9422648 61.0491908 -31.6298102 56.3627494 20.0168791
1.7860840 -0.6023225 1.0321699 -0.271413 -0.562326 -0.011585 2.1633087 -1.3046669 4.0858459 55.4696332 -20.2490789 62.9277702 20.7723484
1.7362422 -0.5211785 1.0723386 -0.133235 -0.516162 -0.005829 0.8889610 -0.2150234 2.0295423 49.0101752 -9.7118258 66.3839305 21.9917707
1.6776451 -0.4417644 1.0966429 -0.005122 -0.460997 -0.003907 -0.1060808 -0.0191652 -0.2871913 42.4946167 -0.2946217 67.5802941 23.3906542
1.6126740 -0.3672795 1.1077463 0.107208 -0.403156 -0.006647 -0.6806751 -0.4597097 -2.1566986 36.4388853 7.7446683 67.2489291 24.9168585
1.5431276 -0.2997139 1.1088921 0.201167 -0.347472 -0.013280 -0.9051619 -1.1319761 -3.3289959 31.0077840 14.5498428 66.1208125 26.3873663
1.4702428 -0.2399667 1.1032665 0.276343 -0.296215 -0.022261 -0.9032178 -1.7303358 -3.8432042 26.2323251 20.1178975 64.6786163 27.8160998
1.3948045 -0.1880625 1.0935551 0.333770 -0.250267 -0.031898 -0.8115631 -2.1803186 -4.0024911 22.0689322 24.6993421 63.1732469 29.0569182
1.3172601 -0.1434122 1.0817401 0.375486 -0.209247 -0.041039 -0.6779466 -2.4340278 -3.9014499 18.4424724 28.3276433 61.8190613 30.1673224
1.2377299 -0.1050873 1.0691055 0.404020 -0.172574 -0.048935 -0.5373831 -2.5100733 -3.6495624 15.1644628 31.2682461 60.8143460 31.1549550
1.1556555 -0.0721083 1.0564759 0.421004 -0.139187 -0.055207 -0.3290272 -1.9761675 -2.6845702 12.3818510 33.7087431 60.3191809 31.9385662
1.9290417 -0.7929557 0.7229903 -0.617878 -0.693721 -0.010295 8.7614203 -9.7743772 3.0230616 79.8596107 -50.2902240 17.5596260 17.7415499
1.9326732 -0.7408093 0.8191509 -0.516852 -0.718330 -0.015689 10.5440947 -9.3900842 6.9074439 80.2475940 -41.0702856 33.6210066 17.1529190
1.9155464 -0.6751780 0.9035023 -0.391859 -0.714447 -0.013708 9.6325705 -6.4224870 9.1799781 76.5050934 -30.5117418 46.2060858 17.5851181
1.8806765 -0.6004336 0.9716998 -0.254421 -0.684869 -0.007366 6.8711030 -2.9012915 8.6113616 69.9665011 -19.2968392 55.0182762 18.3724842
1.8317156 -0.5216308 1.0219778 -0.115788 -0.634166 -0.000717 3.5888328 -0.5062584 5.6158664 61.8900671 -8.7869123 60.2359176 19.9004633
1.7723783 -0.4433145 1.0550076 0.013872 -0.571063 0.002859 1.0279389 0.1947925 1.9459967 53.6825533 0.7542341 62.5542071 21.4505633
1.7058403 -0.3689510 1.0731862 0.128931 -0.503435 0.001366 -0.5291013 -0.3061037 -1.1861907 45.9291904 8.9503325 63.0182671 23.3600365
1.6344636 -0.3008112 1.0797922 0.225879 -0.437676 -0.004603 -1.1968730 -1.2347451 -3.1311460 39.0785160 15.8961146 62.3119968 24.9725453
1.5597871 -0.2400723 1.0782510 0.304210 -0.377070 -0.013685 -1.3686663 -2.1254541 -4.1406599 33.1123542 21.6461228 61.1107099 26.7335011
1.4826441 -0.1869955 1.0716055 0.364477 -0.322776 -0.023996 -1.2547337 -2.6966557 -4.3756232 28.0505573 26.3949056 59.7367484 28.0312807
1.4032710 -0.1411494 1.0621982 0.408941 -0.274271 -0.034380 -1.0763346 -3.0513342 -4.3384253 23.5445658 30.1834633 58.5184566 29.5061559
1.3212901 -0.1016555 1.0516091 0.439131 -0.230620 -0.043719 -0.8582623 -3.1230266 -4.0344287 19.7186321 33.2357548 57.4666526 30.4166197
1.2353525 -0.0674774 1.0408377 0.457394 -0.190319 -0.051801 -0.6992142 -3.2256704 -3.8979105 16.1282827 35.4155373 56.5433619 31.5878058
1.9958607 -0.7167205 0.7234383 -0.466547 -0.813912 -0.007122 20.4434772 -13.7532698 5.9513580 92.4091546 -36.9550287 17.4893410 15.1337232
1.9898694 -0.6575662 0.8172906 -0.349950 -0.821780 -0.007093 19.9901527 -9.7095206 11.1459855 90.0826968 -27.4653288 32.3624896 15.2608734
1.9617702 -0.5883182 0.8965863 -0.218060 -0.796998 -0.002101 15.2097772 -4.3487209 12.4166536 83.5513757 -17.0975217 43.8001005 16.1277652
1.9160803 -0.5137226 0.9580418 -0.083426 -0.745146 0.005126 8.8753791 -0.5124948 9.5661617 74.6589593 -7.1079575 51.2394866 17.7634947
1.8575508 -0.4383210 1.0012821 0.044300 -0.676620 0.009766 3.5565506 0.7503065 4.7942998 64.9337323 2.2697869 55.3999765 19.6680023
1.7903374 -0.3657105 1.0281463 0.158422 -0.600645 0.009559 0.2189047 0.1158158 0.3568761 55.6005186 10.3322741 57.1008413 21.7613754
1.7175592 -0.2983600 1.0417456 0.255508 -0.525666 0.004448 -1.3804201 -1.2449689 -2.6606906 47.2542360 17.3124795 57.2273301 23.7432899
1.6412406 -0.2376908 1.0456287 0.334529 -0.455946 -0.004409 -1.8660214 -2.4857732 -4.1888388 40.1089289 23.0998056 56.5840607 25.6220078
1.5624347 -0.1842262 1.0431465 0.396166 -0.393451 -0.015173 -1.8288153 -3.3339535 -4.7425202 33.9348985 27.9417785 55.5887862 27.2945015
1.4813707 -0.1377631 1.0370360 0.441644 -0.337680 -0.026360 -1.5713871 -3.7444453 -4.7018643 28.7251644 31.8479147 54.5823080 28.7569333
1.3975149 -0.0975862 1.0292385 0.473137 -0.287569 -0.036918 -1.2833545 -3.8895396 -4.4573504 24.0848354 35.0420432 53.7159240 30.0418927
1.3094636 -0.0627375 1.0209937 0.492068 -0.241216 -0.046455 -1.0168313 -3.8672506 -4.1571446 19.9751783 37.4389308 53.1336514 31.1551554
2.0409694 -0.6270397 0.7206747 -0.281962 -0.901278 -0.001560 31.1317347 -10.5104616 7.8887488 99.0858181 -22.5146001 16.2550067 13.4245970
2.0234657 -0.5649431 0.8092299 -0.160040 -0.886469 0.002432 25.8009511 -4.3654759 12.6254546 94.0598773 -13.6205329 29.7589873 14.0978793
1.9844539 -0.4964578 0.8816045 -0.033540 -0.839019 0.009672 16.4261022 0.3510369 11.8291089 85.4869838 -4.5236757 39.6157833 15.8349857
1.9293956 -0.4258906 0.9358050 0.087921 -0.769409 0.015154 7.7016188 1.8919398 7.3410643 75.1293688 4.2382940 46.0113653 17.8056208
1.8634043 -0.3568148 0.9726244 0.197149 -0.688648 0.016413 1.7714426 0.9078013 2.1125919 64.7345390 11.9748600 49.4512333 20.2199010
1.7904905 -0.2918022 0.9946616 0.290995 -0.606792 0.012474 -1.2285499 -1.0165767 -1.7702330 55.1686280 18.7745238 50.8373976 22.3216790
1.7133507 -0.2324701 1.0053577 0.368189 -0.529561 0.004218 -2.3694241 -2.8276446 -4.0317460 46.8175822 24.4647603 51.0839901 24.5464884
1.6334683 -0.1795999 1.0082465 0.428745 -0.459838 -0.006393 -2.4594868 -3.9649629 -4.8739477 39.7694012 29.2961066 50.6621461 26.2476722
1.5512923 -0.1332623 1.0064102 0.474101 -0.397658 -0.018010 -2.1835730 -4.5601518 -5.0108994 33.6987856 33.2738822 50.1264659 28.0461524
1.4663936 -0.0929739 1.0021713 0.505560 -0.341798 -0.029378 -1.7625467 -4.6437473 -4.6944415 28.4844723 36.5289349 49.6229365 29.3055041
1.3775518 -0.0579280 0.9970436 0.524788 -0.290571 -0.039909 -1.3995389 -4.5849291 -4.3707661 23.8440578 39.1148803 49.3574185 30.7085479
2.0606102 -0.5302894 0.7149738 -0.081307 -0.942513 0.003565 33.6451894 -1.9090129 7.6081990 99.6255554 -8.8797867 14.5607113 13.0276684
2.0318570 -0.4695874 0.7960559 0.033292 -0.905428 0.010794 23.5402010 2.4679320 10.3446973 92.6583750 -1.0092953 26.2666295 14.4439998
1.9836859 -0.4056478 0.8605594 0.144446 -0.840814 0.017297 12.2999501 3.6306354 7.9816135 82.9591196 6.8013941 34.8109000 16.5248270
1.9217398 -0.3418449 0.9077189 0.245241 -0.760719 0.020333 3.8426927 2.0085833 3.3040694 72.3356706 13.9679653 40.1379300 18.9330860
1.8508311 -0.2807437 0.9391441 0.332867 -0.676241 0.017935 -0.8651998 -0.6863920 -0.9303747 62.0103360 20.4095917 43.1566860 21.2978448
1.7744278 -0.2240912 0.9578139 0.405225 -0.594403 0.011122 -2.7865148 -3.0936955 -3.6176682 52.9506877 25.8582735 44.5379353 23.5562210
1.6946235 -0.1728988 0.9672018 0.462980 -0.519634 0.001228 -3.1571899 -4.6566500 -4.8422229 45.0285598 30.6237400 45.0044771 25.5637610
1.6122998 -0.1275181 0.9706015 0.506401 -0.452387 -0.010179 -2.8461288 -5.3796947 -5.0982676 38.3576916 34.5512132 45.0933220 27.3587902
1.5273316 -0.0877370 0.9706635 0.537023 -0.392179 -0.021708 -2.3371434 -5.5247583 -4.8783094 32.5347898 37.8792463 45.0504307 28.8987487
1.4387886 -0.0529485 0.9691932 0.555897 -0.337156 -0.032746 -1.8376271 -5.3531895 -4.4958650 27.4562092 40.5338839 45.1177057 30.2504581
2.0547410 -0.4339112 0.7070293 0.112796 -0.936654 0.007370 26.1748365 5.2260899 5.3827468 95.3036054 3.2740704 12.6591185 13.9551976
2.0167690 -0.3779631 0.7794462 0.210923 -0.883324 0.015063 15.0612961 5.4531874 6.0450490 87.2573695 9.8860684 22.6641125 15.7068988
1.9621307 -0.3208834 0.8359712 0.300900 -0.810395 0.019943 5.4175376 3.0215306 3.2166716 77.3978357 16.3197337 29.7947623 18.0759825
1.8960188 -0.2650962 0.8768028 0.379432 -0.728511 0.019826 -0.4690107 -0.3716718 -0.3690435 67.2984340 22.1356228 34.4514398 20.3403578
1.8225610 -0.2123894 0.9040284 0.445122 -0.646632 0.015141 -3.1886475 -3.4110801 -3.1367309 57.9286363 27.2902270 37.1749030 22.7766238
1.7445334 -0.1639461 0.9207214 0.498038 -0.569742 0.006687 -3.8292041 -5.3273713 -4.5505563 49.6107166 31.8083801 38.7125922 24.7329968
1.6634018 -0.1203742 0.9301482 0.538319 -0.499865 -0.003669 -3.5745875 -6.2863415 -5.0330332 42.4875985 35.6618097 39.5678365 26.7519698
1.5795062 -0.0817395 0.9351582 0.567043 -0.436844 -0.014798 -2.9450819 -6.4109018 -4.8727900 36.2807481 38.9575498 40.1232830 28.2294891
1.4922979 -0.0476693 0.9378138 0.585048 -0.379388 -0.025791 -2.3371195 -6.2103377 -4.5478357 30.8633415 41.6583889 40.6886475 29.8295223
2.0267493 -0.3439767 0.6978072 0.282519 -0.893978 0.008573 13.9012510 6.2521966 2.6357162 87.5899884 13.6422926 10.7765664 15.8754503
1.9823251 -0.2945651 0.7612830 0.360266 -0.833510 0.015353 5.3649774 3.3144765 1.9905512 79.4679780 19.0465501 19.1435269 17.8416745
1.9239352 -0.2451456 0.8103345 0.428726 -0.760336 0.017844 -0.6129151 -0.5037158 -0.3366962 70.3236063 24.2000761 25.2050300 20.0630712
1.8559956 -0.1974300 0.8458234 0.486407 -0.683103 0.015749 -3.6281373 -3.8655827 -2.6417157 61.3589832 28.8827222 29.2481094 22.2877763
1.7818444 -0.1526862 0.8700509 0.533410 -0.608100 0.009547 -4.4823563 -6.0531180 -4.0838907 53.0790985 33.1372729 31.9217079 24.3747133
1.7035682 -0.1117204 0.8859461 0.569480 -0.538262 0.000889 -4.2442756 -7.1220013 -4.6854444 45.8498285 36.7949993 33.6271955 26.2807932
1.6220717 -0.0748531 0.8963438 0.595744 -0.474579 -0.009169 -3.5715337 -7.3261430 -4.6989232 39.3868019 40.0081218 34.8766307 27.9616918
1.5372740 -0.0419568 0.9034630 0.612298 -0.416206 -0.019471 -2.8459524 -7.0514707 -4.4380707 33.8096331 42.6652670 35.8987110 29.4386845
1.9817606 -0.2639577 0.6882647 0.419227 -0.829927 0.007960 3.2610890 2.2980089 0.5756176 78.4167088 22.1617125 8.9956450 18.2919478
1.9335079 -0.2215057 0.7432362 0.477397 -0.769763 0.012653 -1.5206277 -1.3393969 -0.5261287 70.9318460 26.4616450 16.0438764 20.0369808
1.8735747 -0.1795130 0.7857176 0.526895 -0.701936 0.013291 -4.2322813 -4.6309221 -2.1700541 62.9895940 30.6329968 21.2167292 22.1668940
1.8055342 -0.1392181 0.8169706 0.567351 -0.632612 0.009705 -5.0779247 -6.8385740 -3.4559086 55.3188912 34.4082833 24.9060216 24.0064444
1.7319638 -0.1015384 0.8392718 0.599012 -0.566113 0.003287 -4.8731093 -7.9895189 -4.1632202 48.2518196 37.8774353 27.4831537 25.9882854
1.6543314 -0.0669970 0.8551752 0.622123 -0.503925 -0.005177 -4.1271699 -8.1489441 -4.2965136 41.9419535 40.9272293 29.4422310 27.4935837
1.5730762 -0.0357003 0.8668884 0.637121 -0.446427 -0.014271 -3.3520151 -7.8991009 -4.1920621 36.2977136 43.5526028 30.9723428 29.1386056
1.9250483 -0.1949869 0.6791704 0.523022 -0.758530 0.006040 -3.0955539 -3.0034238 -0.5123601 69.1773972 29.0571777 7.5018685 20.7584377
1.8750774 -0.1591076 0.7265702 0.564615 -0.703218 0.008857 -5.0246259 -5.8028063 -1.6332854 62.7431840 32.4989254 13.3922412 22.4573720
1.8151963 -0.1237794 0.7636111 0.599113 -0.643260 0.007824 -5.6243472 -7.7446391 -2.7153054 55.9899467 35.9212002 17.9328187 24.2033840
1.7481731 -0.0899154 0.7916946 0.626064 -0.582749 0.003744 -5.3645792 -8.7858394 -3.4500468 49.5862168 39.0089727 21.3000900 25.9023211
1.6759036 -0.0581647 0.8128286 0.646204 -0.524523 -0.002722 -4.6174572 -8.9510817 -3.7484106 43.5454935 41.8902333 23.9106455 27.4895341
1.5993321 -0.0288346 0.8290000 0.659328 -0.469430 -0.010364 -3.7328054 -8.5200876 -3.7193873 38.1685059 44.4999260 26.0253461 28.9398746
1.8612916 -0.1367544 0.6710644 0.598281 -0.688921 0.003942 -5.7008561 -7.1125813 -0.8910265 60.8202791 34.6377538 6.2545325 23.0908891
1.8111726 -0.1066900 0.7121162 0.626948 -0.640269 0.004797 -5.9642275 -8.5862672 -1.8367293 55.4647615 37.4475388 11.3744296 24.3941285
1.7523467 -0.0770282 0.7448677 0.649900 -0.588397 0.002932 -5.6484506 -9.4291690 -2.5943929 49.8894412 40.2429703 15.3512565 26.0379202
1.6868537 -0.0484319 0.7705785 0.667006 -0.535985 -0.001615 -4.9580417 -9.6093507 -3.0501292 44.4398699 42.7396208 18.5322105 27.3311690
1.6160345 -0.0213597 0.7907948 0.678556 -0.485030 -0.007566 -4.2381261 -9.5275451 -3.3119671 39.2183316 44.9184161 20.9648671 28.8447369
1.7944389 -0.0882741 0.6642661 0.650966 -0.625927 0.001918 -6.0928468 -9.3478681 -0.9073332 53.6187572 39.2093165 5.3001169 25.1501272
1.7451792 -0.0630934 0.7002490 0.670133 -0.584055 0.001566 -5.7743708 -10.0018436 -1.7027850 49.1162449 41.4653215 9.6940099 26.3880355
1.6877330 -0.0379443 0.7296093 0.684860 -0.539201 -0.001260 -4.9835358 -9.8143057 -2.2031141 44.5367028 44.0512967 13.4171881 27.6403914
1.6235988 -0.0133493 0.7532407 0.694786 -0.493478 -0.005686 -4.2036430 -9.4479919 -2.5012484 40.0098112 46.2596923 16.3856996 28.8892581
1.7276269 -0.0482670 0.6588582 0.686663 -0.571129 0.000371 -5.4714906 -9.9873541 -0.7854795 47.6848501 43.0271709 4.5872068 26.8811739
1.6794487 -0.0268668 0.6908120 0.698997 -0.534778 -0.001213 -5.2606662 -10.6755639 -1.5019254 43.6800213 44.3443518 8.5148318 27.7671353
1.6228361 -0.0049434 0.7171419 0.707936 -0.495435 -0.004273 -4.2869534 -9.7592658 -1.8394830 39.9548679 47.0055334 11.8424451 29.0294892
1.6628174 -0.0152393 0.6546544 0.710276 -0.524252 -0.000893 -4.5128403 -9.5545287 -0.6299150 42.8119680 46.5337815 4.0650854 28.3638792
1.6148089 0.0036895 0.6830293 0.718099 -0.491755 -0.003037 -4.5872328 -10.6943341 -1.2740634 39.0308149 46.8915448 7.4703453 29.2737797
1.6003733 0.0124987 0.6511335 0.725304 -0.483615 -0.001723 -4.5565208 -10.9873812 -0.6188777 37.9365595 47.2143892 3.5491772 29.5781820
1.5785180 0.0221514 0.6212299 0.730967 -0.468910 0.000000 -2.9480127 -7.4542110 0.0000003 38.2317546 52.3841336 -0.0000052 30.0201908
1.6375310 -0.0026315 0.6212299 0.718437 -0.507367 0.000000 -4.1545828 -9.2938476 0.0000004 40.7729712 46.7291020 -0.0000043 28.6776881
1.7003126 -0.0324725 0.6212299 0.699815 -0.550883 0.000000 -5.3282863 -10.3979001 0.0000004 45.3077059 44.1682749 -0.0000030 27.5656454
1.7662384 -0.0687694 0.6212299 0.670576 -0.602065 0.000000 -5.8878585 -9.7841014 0.0000004 50.9870319 40.9765774 -0.0000033 25.7871790
1.8337760 -0.1129827 0.6212299 0.626971 -0.661907 0.000000 -6.1293109 -8.4186568 0.0000003 57.6655286 36.8339218 -0.0000017 24.0127161
1.9001604 -0.1664554 0.6212299 0.563402 -0.729805 0.000000 -4.6448408 -5.0713208 0.0000002 65.6576288 31.7392363 -0.0000025 21.6605829
1.9617505 -0.2303367 0.6212299 0.474169 -0.802921 0.000000 -0.0489534 -0.0401962 0.0000000 74.7130177 25.5274305 -0.0000015 19.3088234
2.0141688 -0.3053601 0.6212299 0.353329 -0.873945 0.000000 9.2504738 5.2027855 -0.0000002 84.3830455 17.7711182 -0.0000017 16.6564631
2.0523063 -0.3912410 0.6212299 0.198197 -0.931188 0.000000 22.2516008 6.9526059 -0.0000005 93.3664099 8.2492104 -0.0000013 14.5008924
2.0706875 -0.4857404 0.6212299 0.012529 -0.958831 0.000000 33.9388841 2.1368525 -0.0000006 99.8422728 -3.1727275 -0.0000018 12.8425946
2.0646926 -0.5839204 0.6212299 -0.189923 -0.942654 0.000000 36.9197870 -7.3839125 -0.0000008 102.1641472 -16.1473240 -0.0000015 12.6287056
2.0324744 -0.6785624 0.6212299 -0.387104 -0.876956 0.000000 29.0670655 -14.4928015 -0.0000007 98.8555091 -30.5976755 -0.0000020 13.7024429
1.9762681 -0.7621806 0.6212299 -0.557742 -0.771101 0.000000 15.9574279 -13.8739354 -0.0000005 89.2697809 -44.8119220 -0.0000023 16.0161023
1.9018262 -0.8295182 0.6212299 -0.688282 -0.641916 0.000000 5.1460581 -7.0940814 -0.0000002 74.4873636 -56.4584760 -0.0000026 18.6580991
1.8169766 -0.8783810 0.6212299 -0.780024 -0.507400 0.000000 -0.4758041 1.0399782 0.0000000 58.5373908 -65.8989994 -0.0000032 21.5657027
1.7523186 -0.8955346 0.5335571 -0.806066 -0.426513 0.010689 -1.9236544 5.6571734 1.0032408 46.9270839 -66.3881275 -13.6872648 23.1314196
1.7649961 -0.8640361 0.4422498 -0.748278 -0.455925 0.019582 -0.7987255 1.9878335 0.8287702 49.9040185 -60.8858469 -29.2938749 22.3874203
1.7647237 -0.8149732 0.3542994 -0.658582 -0.474885 0.024866 -0.0908122 0.1897988 0.1364387 50.4760413 -52.8180259 -43.3098916 22.1088037
1.7504484 -0.7509767 0.2761849 -0.543955 -0.479599 0.024211 0.3815714 -0.6513580 -0.7466342 49.2168368 -42.5132222 -54.6578821 21.8700125
1.7226878 -0.6761788 0.2121852 -0.411727 -0.467217 0.019446 0.4769321 -0.6259445 -1.1561811 46.0664182 -31.3876329 -62.8520204 22.2665894
1.6830098 -0.5955046 0.1644105 -0.273606 -0.438994 0.013357 0.2576445 -0.2268450 -0.7530821 41.8002614 -20.3314168 -67.8389127 22.8171209
1.6334721 -0.5137249 0.1327978 -0.139055 -0.398880 0.009344 -0.1040489 0.0403634 0.3607703 36.9672653 -10.1300058 -70.2267604 23.9027800
1.5761435 -0.4348007 0.1155870 -0.015980 -0.352318 0.009256 -0.3784488 -0.0701228 1.5408383 32.1595139 -1.1034161 -70.7696768 24.9495050
1.5128078 -0.3615554 0.1100096 0.091147 -0.304299 0.013372 -0.5430114 -0.4654044 2.5816480 27.5216470 6.6211461 -70.1457965 26.3678942
1.4448675 -0.2956340 0.1129637 0.179678 -0.258273 0.020485 -0.5704778 -0.9394883 3.1641020 23.3927524 13.1150344 -68.8866335 27.4650453
1.3733797 -0.2376458 0.1215641 0.249976 -0.215953 0.029143 -0.5389948 -1.3917892 3.5015859 19.6275636 18.4547776 -67.4101942 28.8063623
1.2991630 -0.1874091 0.1334697 0.303114 -0.177871 0.037888 -0.4625974 -1.7147803 3.5515532 16.3141182 22.7648388 -65.9487989 29.7262446
1.2229425 -0.1442562 0.1469986 0.341355 -0.144022 0.045735 -0.4003726 -2.0361001 3.6781828 13.3469519 26.1791018 -64.5497216 30.8387675
1.1454920 -0.1073202 0.1610347 0.366829 -0.114052 0.052097 -0.3473208 -2.3652330 3.8775609 10.8186240 28.5413824 -63.0729882 31.4179681
1.0683158 -0.0759817 0.1747445 0.382480 -0.087927 0.056467 -0.2803510 -2.5523888 3.8995852 8.5642064 31.9957297 -64.6604011 32.3637280
1.6003733 0.0124987 0.5913263 0.725304 -0.483615 0.001723 -4.5565329 -10.9874103 0.6188803 37.9365422 47.2143609 -3.5491807 29.5781808
1.6148089 0.0036895 0.5594305 0.718099 -0.491755 0.003037 -4.5872197 -10.6943035 1.2740606 39.0308293 46.8915744 -7.4703516 29.2737809
1.6228361 -0.0049434 0.5253179 0.707936 -0.495435 0.004273 -4.2869617 -9.7592848 1.8394873 39.9548580 47.0055131 -11.8424497 29.0294872
1.6235988 -0.0133493 0.4892191 0.694786 -0.493478 0.005686 -4.2036382 -9.4479812 2.5012463 40.0098154 46.2597031 -16.3857035 28.8892601
1.6160345 -0.0213597 0.4516649 0.678556 -0.485030 0.007566 -4.2381280 -9.5275495 3.3119693 39.2183296 44.9184086 -20.9648735 28.8447345
1.5993321 -0.0288346 0.4134598 0.659328 -0.469430 0.010364 -3.7328043 -8.5200852 3.7193868 38.1685062 44.4999289 -26.0253467 28.9398765
1.5730762 -0.0357003 0.3755714 0.637121 -0.446427 0.014271 -3.3520151 -7.8991008 4.1920626 36.2977128 43.5525986 -30.9723513 29.1386038
1.5372740 -0.0419568 0.3389968 0.612298 -0.416206 0.019471 -2.8459522 -7.0514705 4.4380711 33.8096327 42.6652685 -35.8987089 29.4386857
1.4922979 -0.0476693 0.3046460 0.585048 -0.379388 0.025791 -2.3371194 -6.2103373 4.5478359 30.8633418 41.6583830 -40.6886560 29.8295208
1.4387886 -0.0529485 0.2732666 0.555897 -0.337156 0.032746 -1.8376268 -5.3531887 4.4958647 27.4562070 40.5338872 -45.1177041 30.2504595
1.3775518 -0.0579280 0.2454162 0.524788 -0.290571 0.039909 -1.3995388 -4.5849289 4.3707663 23.8440601 39.1148740 -49.3574244 30.7085465
1.3094636 -0.0627375 0.2214661 0.492068 -0.241216 0.046455 -1.0168312 -3.8672504 4.1571448 19.9751738 37.4389304 -53.1336531 31.1551558
1.2353525 -0.0674774 0.2016221 0.457394 -0.190319 0.051801 -0.6992145 -3.2256719 3.8979127 16.1282852 35.4155328 -56.5433610 31.5878064
1.1556555 -0.0721083 0.1859839 0.421004 -0.139187 0.055207 -0.3290263 -1.9761626 2.6845638 12.3818431 33.7087424 -60.3191923 31.9385633
1.6628174 -0.0152394 0.5878053 0.710276 -0.524252 0.000893 -4.5128396 -9.5545272 0.6299157 42.8119715 46.5337819 -4.0650875 28.3638799
1.6794487 -0.0268669 0.5516478 0.698997 -0.534778 0.001213 -5.2606668 -10.6755652 1.5019264 43.6800188 44.3443499 -8.5148413 27.7671347
1.6877330 -0.0379443 0.5128505 0.684860 -0.539201 0.001260 -4.9835360 -9.8143061 2.2031150 44.5367037 44.0512959 -13.4171880 27.6403924
1.6868537 -0.0484319 0.4718813 0.667006 -0.535985 0.001615 -4.9580413 -9.6093500 3.0501297 44.4398685 42.7396192 -18.5322200 27.3311679
1.6759036 -0.0581647 0.4296312 0.646204 -0.524523 0.002722 -4.6174571 -8.9510814 3.7484111 43.5454929 41.8902342 -23.9106452 27.4895355
1.6543314 -0.0669970 0.3872846 0.622123 -0.503925 0.005177 -4.1271690 -8.1489424 4.2965133 41.9419529 40.9272278 -29.4422394 27.4935822
1.6220716 -0.0748531 0.3461160 0.595744 -0.474579 0.009169 -3.5715336 -7.3261428 4.6989236 39.3868011 40.0081227 -34.8766297 27.9616930
1.5795062 -0.0817395 0.3073016 0.567043 -0.436844 0.014798 -2.9450818 -6.4109015 4.8727902 36.2807457 38.9575462 -40.1232896 28.2294881
1.5273316 -0.0877370 0.2717963 0.537023 -0.392179 0.021708 -2.3371433 -5.5247581 4.8783096 32.5347895 37.8792482 -45.0504284 28.8987488
1.4663936 -0.0929739 0.2402885 0.505560 -0.341798 0.029378 -1.7625465 -4.6437468 4.6944414 28.4844705 36.5289303 -49.6229427 29.3055035
1.3975149 -0.0975862 0.2132213 0.473137 -0.287569 0.036918 -1.2833545 -3.8895395 4.4573506 24.0848341 35.0420471 -53.7159206 30.0418928
1.3212901 -0.1016555 0.1908507 0.439131 -0.230620 0.043719 -0.8582622 -3.1230263 4.0344285 19.7186336 33.2357503 -57.4666563 30.4166189
1.2377299 -0.1050873 0.1733543 0.404020 -0.172574 0.048935 -0.5373830 -2.5100727 3.6495617 15.1644598 31.2682499 -60.8143446 31.1549551
1.7276269 -0.0482670 0.5836015 0.686663 -0.571129 -0.000371 -5.4714909 -9.9873545 0.7854803 47.6848483 43.0271706 -4.5872104 26.8811732
1.7451792 -0.0630934 0.5422108 0.670133 -0.584055 -0.001566 -5.7743715 -10.0018448 1.7027859 49.1162446 41.4653195 -9.6940134 26.3880361
1.7523467 -0.0770282 0.4975921 0.649900 -0.588397 -0.002932 -5.6484510 -9.4291696 2.5943938 49.8894394 40.2429685 -15.3512617 26.0379192
1.7481731 -0.0899154 0.4507652 0.626064 -0.582749 -0.003744 -5.3645788 -8.7858388 3.4500472 49.5862173 39.0089729 -21.3000915 25.9023219
1.7319638 -0.1015384 0.4031880 0.599012 -0.566113 -0.003287 -4.8731084 -7.9895176 4.1632201 48.2518192 37.8774341 -27.4831601 25.9882842
1.7035682 -0.1117205 0.3565137 0.569480 -0.538262 -0.000889 -4.2442755 -7.1220011 4.6854448 45.8498278 36.7949997 -33.6271958 26.2807945
1.6634018 -0.1203743 0.3123116 0.538319 -0.499865 0.003669 -3.5745870 -6.2863406 5.0330329 42.4875982 35.6618071 -39.5678417 26.7519683
1.6122998 -0.1275181 0.2718583 0.506401 -0.452387 0.010179 -2.8461286 -5.3796944 5.0982677 38.3576914 34.5512137 -45.0933220 27.3587916
1.5512923 -0.1332623 0.2360496 0.474101 -0.397658 0.018010 -2.1835731 -4.5601519 5.0108998 33.6987840 33.2738782 -50.1264695 28.0461516
1.4813707 -0.1377631 0.2054238 0.441644 -0.337680 0.026360 -1.5713871 -3.7444453 4.7018646 28.7251650 31.8479150 -54.5823075 28.7569339
1.4032710 -0.1411494 0.1802616 0.408941 -0.274271 0.034380 -1.0763345 -3.0513338 4.3384251 23.5445636 30.1834583 -58.5184610 29.5061558
1.3172601 -0.1434122 0.1607197 0.375486 -0.209247 0.041039 -0.6779466 -2.4340276 3.9014496 18.4424722 28.3276439 -61.8190613 30.1673227
1.7944389 -0.0882741 0.5781937 0.650966 -0.625927 -0.001918 -6.0928449 -9.3478653 0.9073337 53.6187597 39.2093188 -5.3001204 25.1501277
1.8111726 -0.1066901 0.5303436 0.626948 -0.640269 -0.004797 -5.9642283 -8.5862684 1.8367302 55.4647596 37.4475370 -11.3744349 24.3941281
1.8151963 -0.1237794 0.4788487 0.599113 -0.643260 -0.007824 -5.6243471 -7.7446389 2.7153059 55.9899468 35.9211999 -17.9328210 24.2033845
1.8055342 -0.1392181 0.4254891 0.567351 -0.632612 -0.009705 -5.0779237 -6.8385726 3.4559084 55.3188899 34.4082834 -24.9060277 24.0064439
1.7818444 -0.1526862 0.3724089 0.533410 -0.608100 -0.009547 -4.4823562 -6.0531179 4.0838910 53.0790984 33.1372728 -31.9217084 24.3747137
1.7445334 -0.1639461 0.3217384 0.498038 -0.569742 -0.006687 -3.8292038 -5.3273709 4.5505563 49.6107141 31.8083785 -38.7125971 24.7329963
1.6946235 -0.1728988 0.2752580 0.462980 -0.519634 -0.001228 -3.1571897 -4.6566497 4.8422229 45.0285593 30.6237411 -45.0044769 25.5637616
1.6334683 -0.1795999 0.2342133 0.428746 -0.459838 0.006393 -2.4594868 -3.9649629 4.8739479 39.7693989 29.2961043 -50.6621489 26.2476712
1.5624347 -0.1842262 0.1993133 0.396166 -0.393451 0.015173 -1.8288152 -3.3339534 4.7425203 33.9348980 27.9417801 -55.5887853 27.2945019
1.4826440 -0.1869955 0.1708543 0.364477 -0.322776 0.023996 -1.2547335 -2.6966555 4.3756231 28.0505557 26.3949044 -59.7367500 28.0312801
1.3948045 -0.1880625 0.1489047 0.333770 -0.250267 0.031898 -0.8115631 -2.1803187 4.0024914 22.0689327 24.6993448 -63.1732448 29.0569177
1.8612916 -0.1367544 0.5713953 0.598281 -0.688921 -0.003942 -5.7008553 -7.1125802 0.8910269 60.8202794 34.6377546 -6.2545362 23.0908887
1.8750774 -0.1591076 0.5158896 0.564615 -0.703218 -0.008857 -5.0246260 -5.8028064 1.6332858 62.7431835 32.4989249 -13.3922442 22.4573724
1.8735747 -0.1795130 0.4567422 0.526895 -0.701936 -0.013291 -4.2322805 -4.6309212 2.1700541 62.9895940 30.6329968 -21.2167327 22.1668935
1.8559956 -0.1974300 0.3966363 0.486407 -0.683103 -0.015749 -3.6281374 -3.8655828 2.6417160 61.3589825 28.8827217 -29.2481114 22.2877771
1.8225610 -0.2123894 0.3384314 0.445122 -0.646632 -0.015141 -3.1886468 -3.4110794 3.1367306 57.9286354 27.2902264 -37.1749067 22.7766234
1.7744278 -0.2240912 0.2846459 0.405225 -0.594403 -0.011122 -2.7865145 -3.0936952 3.6176680 52.9506881 25.8582738 -44.5379361 23.5562217