# volRat = 0.650000
# viscRat = 5.000000
# alpha = 0.250000
# shRate = 5.500000
# tnum = 7500
# time = 5.809818
VARIABLES = X, Y, Z, U, V, W, F_B0, F_B1, F_B2, F_0, F_1, F_2, T
ZONE N=2562 E=5120 F=FEPOINT ET=TRIANGLE
1.5084497 0.0044545 0.6212299 0.754818 -0.282558 0.000001 3.4499161 9.2421292 0.0000016 32.0812763 48.2436890 0.0000186 28.6768703
-1.6329841 0.9619623 0.6212299 0.798160 0.100572 0.000001 -1.7942665 14.0425765 0.0000040 -26.7867491 67.3081162 -0.0000762 23.2373464
1.6329841 -0.9619623 0.6212299 -0.798154 -0.100566 0.000001 1.7943211 -14.0430075 0.0000040 26.7826434 -67.3106057 -0.0001002 23.2423521
-1.5084497 -0.0044545 0.6212299 -0.754823 0.282565 0.000001 -3.4500838 -9.2425786 0.0000016 -32.0786518 -48.2460014 0.0000059 28.6802403
0.9376068 -0.2426188 1.1216434 0.169541 0.125786 -0.018481 -1.9951385 9.3376000 46.7158432 -0.8669942 14.8522743 101.4171617 29.1841391
0.9376068 -0.2426188 0.1208163 0.169538 0.125787 0.018485 -1.9950462 9.3373726 -46.7143864 -0.8664088 14.8514851 -101.4158776 29.1838637
-0.9376068 0.2426188 1.1216435 -0.169547 -0.125776 -0.018480 1.9951519 -9.3376606 46.7161537 0.8701426 -14.8568510 101.4161038 29.1838042
-0.9376068 0.2426188 0.1208163 -0.169544 -0.125776 0.018484 1.9950597 -9.3374331 -46.7146992 0.8695694 -14.8559333 -101.4148449 29.1835096
-0.1712207 0.4274207 0.8544905 0.452641 -0.222456 0.030126 -6.2067731 -14.0766806 -9.2522489 15.0063984 38.7118687 29.5058281 31.8508712
0.1712192 -0.4274241 0.8544927 -0.456035 0.214647 0.035141 17.1287218 38.8478985 -25.5329416 -4.3088273 -14.3376952 13.6514449 31.8851807
-0.1712211 0.4274198 0.3879699 0.451749 -0.224499 -0.028802 -2.9147925 -6.6105749 4.3452682 18.2358045 46.0476150 -34.3405468 31.8538138
0.1712195 -0.4274233 0.3879676 -0.455210 0.216537 -0.033916 14.0848003 31.9441014 20.9968927 -7.2950249 -21.1207834 -18.1215431 31.8887250
1.5322784 -0.0057199 0.6650467 0.752443 -0.290982 -0.003268 -4.6546624 -12.0630693 -0.9336587 32.0155093 43.8947876 4.6386108 28.5044757
1.5509419 -0.0190245 0.7131345 0.741751 -0.296459 -0.005990 -4.1033888 -10.2625444 -1.8009280 33.2416277 43.2034997 10.4655816 27.9622577
1.5619193 -0.0350298 0.7639453 0.723174 -0.296613 -0.008076 -3.9798817 -9.6603271 -2.7364926 33.6864693 41.9321808 16.3521743 27.7469527
1.5634926 -0.0533382 0.8156868 0.696086 -0.290121 -0.009905 -3.8009136 -9.0268798 -3.6400084 33.6369983 40.2140676 22.4141065 27.2987769
1.5546961 -0.0735261 0.8667970 0.661460 -0.276364 -0.011936 -3.4711989 -8.1506104 -4.3780704 32.9036157 38.4057736 28.5692991 27.2280558
1.5351386 -0.0950229 0.9157141 0.620026 -0.254796 -0.014525 -3.0184568 -7.0986096 -4.8784107 31.5501728 36.2873010 34.6370588 26.9815500
1.5049711 -0.1171240 0.9610050 0.573753 -0.225773 -0.017739 -2.5030406 -5.9898166 -5.1286937 29.4619369 33.9413622 40.4440225 27.0971034
1.4648250 -0.1390475 1.0014851 0.524215 -0.189971 -0.021404 -1.9597472 -4.8661533 -5.0984731 26.8408327 31.3043288 45.8689003 27.0730218
1.4157056 -0.1600180 1.0363164 0.473622 -0.149039 -0.024997 -1.4613458 -3.8594121 -4.8887172 23.6524902 28.5109828 50.7109620 27.3807052
1.3588604 -0.1793449 1.0650453 0.423198 -0.104600 -0.028052 -1.0185257 -2.9569114 -4.4950502 20.2184376 25.5175641 54.9382382 27.4850775
1.2956545 -0.1964819 1.0875822 0.374510 -0.058931 -0.029997 -0.6784079 -2.2706352 -4.1295218 16.5296187 22.4593425 58.3927703 27.9200866
1.2274830 -0.2110564 1.1041435 0.327936 -0.013947 -0.030482 -0.4167499 -1.7386983 -3.7870199 12.9134378 19.3151066 61.0894021 28.0854445
1.1557621 -0.2228765 1.1151749 0.284210 0.028462 -0.029359 -0.1760025 -1.0721858 -2.8134476 9.3906178 16.5646219 63.9683258 28.5382026
1.0819902 -0.2319323 1.1212844 0.242973 0.066924 -0.026659 -0.0878944 -1.3154380 -4.2080819 6.0761118 12.9914784 64.1098599 28.6994797
1.0083867 -0.2383769 1.1231769 0.204767 0.099760 -0.022321 0.2465074 -3.9131331 -15.6336465 3.2156831 7.7031461 54.8542080 29.1303109
1.7446837 -0.9351279 0.6941512 -0.750905 -0.226283 -0.008482 -1.2548390 4.1567814 -0.6517838 42.6449985 -61.4903780 11.3344930 20.9586849
1.7608143 -0.9115263 0.7689561 -0.708761 -0.256350 -0.015802 -0.9826065 2.7551761 -0.9440693 45.4969441 -57.9207499 22.8861632 20.4318701
1.7631867 -0.8774085 0.8429618 -0.647868 -0.274533 -0.020752 -0.4738064 1.1593820 -0.6569761 46.4580127 -52.5228780 34.1772726 20.0539693
1.7512928 -0.8337593 0.9127715 -0.570140 -0.278542 -0.021993 -0.1089634 0.2370137 -0.2007982 45.2722675 -45.7851981 44.0704959 20.0274225
1.7253208 -0.7824954 0.9753647 -0.480446 -0.267169 -0.019336 0.0031789 -0.0062048 0.0075481 42.3428217 -38.2816275 52.0925809 20.2616818
1.6863601 -0.7260053 1.0285985 -0.384419 -0.241053 -0.014003 -0.0793934 0.1389308 -0.2411195 38.0717477 -30.6669734 58.0095077 20.8346296
1.6360990 -0.6666709 1.0714369 -0.287662 -0.202977 -0.007926 -0.2218182 0.3421184 -0.8672191 33.0940709 -23.4435586 62.0355942 21.6353218
1.5764388 -0.6065122 1.1038482 -0.194596 -0.157091 -0.002973 -0.3055826 0.3957995 -1.5644107 27.9243263 -16.8968835 64.5253848 22.5876446
1.5091842 -0.5470316 1.1265149 -0.108466 -0.107896 -0.000312 -0.3167585 0.3026174 -2.1836802 22.9527590 -11.0904935 65.9205647 23.6330474
1.4358779 -0.4892282 1.1405249 -0.031112 -0.059393 -0.000356 -0.2602791 0.1098453 -2.5222159 18.3743328 -6.0537400 66.5801079 24.7055235
1.3577544 -0.4337013 1.1471204 0.036410 -0.014665 -0.002844 -0.1864064 -0.1000682 -2.7194019 14.3140317 -1.6812421 66.7747836 25.7355074
1.2757590 -0.3807744 1.1475577 0.093739 0.024199 -0.007134 -0.1092759 -0.2865016 -2.7173911 10.8206092 2.1044217 66.6987228 26.6986594
1.1905493 -0.3305907 1.1430203 0.141107 0.056186 -0.012423 -0.0454277 -0.4272519 -2.6045324 7.7784882 5.3758042 66.5520245 27.6295314
1.1022567 -0.2832030 1.1346217 0.178286 0.081072 -0.017912 0.0019639 -0.7492955 -3.5058196 5.3259660 8.0717041 65.4602990 28.3910723
1.8297400 -0.9012441 0.7005268 -0.692890 -0.340835 -0.009266 0.7257256 -1.4741391 0.2846373 56.8503273 -57.2854706 12.7103387 18.7304086
1.8436098 -0.8694296 0.7808228 -0.635005 -0.372820 -0.016745 2.0501231 -3.5384972 1.5182464 59.5894495 -52.0134280 25.5855727 17.9861579
1.8401659 -0.8275099 0.8582839 -0.557802 -0.386167 -0.020248 2.7065085 -4.0370152 2.9398988 59.1917407 -45.2303171 37.2574429 17.8969002
1.8199318 -0.7771704 0.9292143 -0.466495 -0.379886 -0.019201 2.5833324 -3.3373539 3.7744790 56.2082770 -37.4161135 47.0120341 18.0160378
1.7842380 -0.7209238 0.9907231 -0.366875 -0.354105 -0.014601 1.7594692 -1.9412717 3.3369015 51.0277623 -29.4125475 54.3718327 18.7853831
1.7351857 -0.6614391 1.0411780 -0.266063 -0.312258 -0.008459 0.8312751 -0.7521449 2.0201852 44.8230735 -21.7450563 59.4535748 19.6294581
1.6751909 -0.6010150 1.0802187 -0.168829 -0.259208 -0.003179 0.0867362 -0.0583233 0.2700064 38.1791746 -14.8455776 62.6628322 20.9368862
1.6065437 -0.5413346 1.1084475 -0.079280 -0.200757 -0.000209 -0.2980578 0.1115875 -1.1981408 31.7821560 -8.7607418 64.4647815 22.1047149
1.5311406 -0.4834607 1.1270162 0.000967 -0.141866 -0.000273 -0.4337338 -0.0160880 -2.2861348 25.8527288 -3.5224194 65.3459053 23.5244488
1.4503924 -0.4279654 1.1372954 0.070568 -0.086548 -0.003099 -0.3933007 -0.2524907 -2.7825199 20.6900701 0.9991223 65.6429196 24.6370986
1.3652110 -0.3750848 1.1406551 0.129818 -0.037145 -0.008081 -0.3120323 -0.4961655 -3.0680446 16.1006437 4.8485968 65.6015694 25.9753389
1.2759643 -0.3248421 1.1383687 0.178160 0.004902 -0.014246 -0.2122111 -0.6801879 -3.0619969 12.3031033 8.1696496 65.3472506 26.8661183
1.1822267 -0.2771505 1.1315725 0.216241 0.039342 -0.020753 -0.1427920 -0.9079728 -3.3273121 8.9353766 10.9322623 64.7892811 28.0145537
1.9085657 -0.8520730 0.7056875 -0.604578 -0.462056 -0.008979 6.9512167 -9.0874542 2.2247873 71.3901259 -49.6646186 13.8775793 16.1911107
1.9169047 -0.8120692 0.7899952 -0.529052 -0.489595 -0.014388 8.8511494 -9.6658634 5.4464048 72.7867639 -43.0265024 27.2009647 15.7244807
1.9051216 -0.7630669 0.8694016 -0.436786 -0.492031 -0.015172 8.6181165 -7.8378421 7.8869526 70.3395277 -35.2242820 38.8844514 15.8099463
1.8747146 -0.7075578 0.9399664 -0.334941 -0.469459 -0.011443 6.5397353 -4.8193707 8.1330703 64.8487729 -27.1300058 48.0349815 16.5227058
1.8282094 -0.6484238 0.9991600 -0.231004 -0.425589 -0.005575 3.8203068 -2.1252513 6.2090481 57.4928883 -19.2456020 54.6608749 17.6694049
1.7686491 -0.5882319 1.0460526 -0.131076 -0.366333 -0.000153 1.5465414 -0.5399646 3.2304988 49.3580312 -12.1591035 58.9688397 19.1250341
1.6989656 -0.5288511 1.0810107 -0.039368 -0.298889 0.002858 0.1411672 -0.0132024 0.3771643 41.3685125 -5.9153846 61.5546122 20.6800822
1.6215699 -0.4714156 1.1051891 0.042067 -0.229582 0.002550 -0.4878923 -0.1169007 -1.6717038 33.9999254 -0.5680247 62.9206414 22.2596368
1.5381989 -0.4164796 1.1200715 0.112523 -0.163343 -0.000969 -0.6483249 -0.4486470 -2.8730837 27.4470125 4.0037649 63.5435542 23.7777792
1.4499122 -0.3642177 1.1271782 0.171784 -0.103294 -0.006913 -0.5781954 -0.7682598 -3.3623205 21.8359714 7.8957220 63.7077481 25.1508038
1.3571067 -0.3145931 1.1279138 0.220216 -0.051162 -0.014286 -0.4487251 -1.0141249 -3.5016167 16.9832462 11.2412215 63.6329676 26.4280740
1.2594526 -0.2674905 1.1235326 0.257747 -0.007277 -0.022097 -0.3115344 -1.1507027 -3.3779341 12.8998733 14.0530497 63.5122097 27.5546901
1.9763466 -0.7866651 0.7096149 -0.479666 -0.578622 -0.006680 17.9122002 -14.8151917 4.9364297 83.8799218 -38.8948714 14.3561062 13.7359299
1.9759870 -0.7394856 0.7961504 -0.387917 -0.594133 -0.008791 18.7565160 -12.3058956 10.0940927 82.9690121 -31.4395581 27.6233470 13.4724196
1.9535815 -0.6853620 0.8756078 -0.285198 -0.578622 -0.005876 15.3119394 -7.5983952 12.4031672 77.8882285 -23.5998402 38.6692296 14.2303314
1.9117876 -0.6272824 0.9441918 -0.179954 -0.535826 -0.000195 9.8851446 -3.2710179 10.9805089 70.0159368 -15.8926752 47.1370292 15.4003125
1.8542176 -0.5680251 1.0000179 -0.079151 -0.472480 0.005391 4.7834017 -0.6916231 6.9877217 60.7184320 -8.9035390 53.0159608 17.1955207
1.7845455 -0.5096308 1.0429309 0.012526 -0.397492 0.008495 1.4237798 0.1134153 2.6819802 51.2937234 -2.6737818 56.7695373 18.9450180
1.7058561 -0.4533038 1.0739143 0.093308 -0.318624 0.007791 -0.3076443 -0.1114892 -0.7412009 42.4359196 2.6392622 59.0244286 20.9474299
1.6203862 -0.3995862 1.0944969 0.162326 -0.242149 0.003505 -0.8878302 -0.6485040 -2.7328200 34.6124030 7.1956503 60.2347907 22.5802374
1.5295205 -0.3486034 1.1063301 0.220124 -0.171949 -0.003655 -0.9461576 -1.1552921 -3.7365824 27.7866312 11.0577491 60.8432815 24.3514079
1.4338834 -0.3002709 1.1109763 0.266781 -0.110109 -0.012452 -0.7706168 -1.4561233 -3.9420799 22.0244260 14.3318720 61.0825319 25.6762555
1.3334196 -0.2544469 1.1098295 0.302783 -0.057486 -0.021739 -0.5877764 -1.6597246 -3.9577478 17.0827259 17.0844945 61.1180299 27.1066802
2.0273071 -0.7062093 0.7118665 -0.318212 -0.674703 -0.002681 30.2971514 -14.2006887 7.4903179 91.7589039 -26.1721456 14.1126150 11.7531246
2.0157537 -0.6542016 0.7985854 -0.216295 -0.670695 -0.000256 26.9560069 -8.5942705 13.1876365 88.1344446 -18.9292830 26.6386140 12.1886119
1.9814832 -0.5980182 0.8761952 -0.111622 -0.633237 0.005500 18.7695230 -3.1105577 13.9662250 80.7114075 -11.7856004 36.9122359 13.4727528
1.9282939 -0.5405465 0.9414793 -0.012173 -0.569795 0.011662 10.0634777 0.0434144 10.3507108 71.0841238 -5.1081196 44.5957849 15.3604239
1.8604944 -0.4839483 0.9933477 0.077431 -0.490387 0.015110 3.7046410 0.7609052 5.0388482 60.6654093 0.9246188 49.9475235 17.4904410
1.7819149 -0.4294832 1.0323104 0.155070 -0.404332 0.014440 0.2343514 0.1062844 0.4122410 50.6538146 6.0921473 53.3876922 19.6403730
1.6954327 -0.3776815 1.0597567 0.220778 -0.319424 0.009519 -1.1418339 -0.8770329 -2.5694761 41.5926085 10.5653407 55.5468572 21.6871438
1.6029140 -0.3286239 1.0773915 0.274976 -0.240378 0.001289 -1.4050172 -1.6492270 -4.0283292 33.7439329 14.3245374 56.8316764 23.5559004
1.5053452 -0.2821813 1.0869071 0.318470 -0.170117 -0.008897 -1.2236229 -2.0850373 -4.4748298 27.0137124 17.5491931 57.6001204 25.2012041
1.4030069 -0.2381755 1.0898462 0.351536 -0.109597 -0.019697 -0.9332802 -2.2451717 -4.3793285 21.3518061 20.2570148 58.0660660 26.6620263
2.0561898 -0.6147458 0.7120471 -0.130118 -0.734033 0.002360 36.8335633 -6.3798003 8.4418086 93.8372025 -13.6072585 13.2599694 10.8038484
2.0323662 -0.5612918 0.7968814 -0.027842 -0.706866 0.008695 27.9498756 -0.8476659 12.8206154 87.9693308 -7.2184695 24.8129243 11.8437736
1.9865585 -0.5064756 0.8710900 0.068497 -0.648619 0.015886 16.2101275 2.0520357 11.4107380 79.0065877 -1.0566093 34.1660759 13.8346153
1.9232875 -0.4524932 0.9322790 0.153831 -0.569521 0.020544 6.7255694 2.0836542 6.5881892 68.5393717 4.5854890 41.1797421 15.9951480
1.8469846 -0.4006258 0.9800754 0.226440 -0.480450 0.020638 1.0572173 0.5630701 1.3755626 57.9444204 9.5638999 46.1213247 18.4831887
1.7612073 -0.3513863 1.0154278 0.286691 -0.390205 0.015802 -1.3622297 -1.1035134 -2.2968442 48.0940656 13.8658624 49.4484666 20.6313042
1.6684135 -0.3048179 1.0399093 0.335683 -0.304941 0.007011 -1.9970893 -2.3170431 -4.3053521 39.3863069 17.5341723 51.6644463 22.8101453
1.5700667 -0.2607528 1.0552591 0.374375 -0.228081 -0.004227 -1.7933108 -2.8786969 -4.9104323 31.9237896 20.6754288 53.1502748 24.5196313
1.4668434 -0.2189825 1.0631373 0.403469 -0.161195 -0.016360 -1.4063393 -3.0571152 -4.8829690 25.5741450 23.3224784 54.1944622 26.2604882
2.0601306 -0.5186256 0.7100692 0.065782 -0.747503 0.006953 32.4137974 3.0182972 7.0757648 90.7692558 -2.4711004 12.1338624 11.2349141
2.0247393 -0.4671802 0.7912798 0.157861 -0.699921 0.015654 20.3975589 4.8686332 8.9970926 83.4329037 3.0285361 22.5766999 12.9205714
1.9691416 -0.4164959 0.8610792 0.237946 -0.627327 0.022275 9.1089852 3.7093313 6.2113138 73.8717890 8.2586921 31.0316920 15.1807763
1.8979374 -0.3678236 0.9178642 0.304393 -0.540687 0.024229 1.7217732 1.0505177 1.6422316 63.4974558 12.9638304 37.4062621 17.6279283
1.8152023 -0.3216481 0.9617574 0.358196 -0.449840 0.020562 -1.7446938 -1.5002959 -2.2166177 53.3991835 17.0967716 42.0589328 20.0051398
1.7240014 -0.2779806 0.9939134 0.400725 -0.361823 0.012203 -2.7098300 -3.1717828 -4.4634167 44.2921278 20.6529845 45.3647941 22.2212200
1.6263577 -0.2366287 1.0159416 0.433724 -0.281168 0.000639 -2.5110496 -3.9115230 -5.2776834 36.2973446 23.7400481 47.7557313 24.1908325
1.5234225 -0.1973673 1.0295405 0.457806 -0.209990 -0.012250 -1.9831972 -4.0466516 -5.2705870 29.4814595 26.3356049 49.4470441 25.9031965
2.0397264 -0.4246202 0.7062478 0.248375 -0.718163 0.009842 19.8282800 6.9764359 4.2158971 84.0147802 7.0905341 10.9499963 12.8768076
1.9948154 -0.3776618 0.7826551 0.323290 -0.657784 0.018759 9.3600349 4.7474122 4.0522808 76.1235962 11.7768505 20.3242445 14.7652138
1.9318160 -0.3325530 0.8475451 0.383824 -0.579652 0.023421 1.5661791 1.0857438 1.0539949 66.7693446 16.1387578 27.8967667 17.1764723
1.8549056 -0.2897285 0.8998991 0.431005 -0.493440 0.022205 -2.3639621 -2.1764904 -2.2324235 57.1949841 20.0462470 33.7721062 19.4475324
1.7675926 -0.2491715 0.9401010 0.467095 -0.407243 0.015499 -3.5716945 -4.2893261 -4.4965055 48.1365713 23.5338695 38.2057188 21.8188667
1.6724642 -0.2106779 0.9693671 0.493945 -0.326153 0.004681 -3.3266774 -5.1428623 -5.4207521 40.0139949 26.5433561 41.5147393 23.7242591
1.5712174 -0.1740273 0.9892793 0.512822 -0.253368 -0.008162 -2.6635274 -5.2436132 -5.5159426 32.9156038 29.1376026 43.9781502 25.6530040
1.9984446 -0.3378532 0.7011647 0.402631 -0.659070 0.010500 6.6304931 4.0945203 1.3980047 75.1985801 15.2494756 9.7950131 15.2753923
1.9464651 -0.2964415 0.7721493 0.458496 -0.594612 0.017969 0.1763891 0.1389545 0.0761531 67.5220776 19.1645087 18.1399615 17.3092502
1.8782514 -0.2570485 0.8319602 0.500605 -0.518562 0.019920 -3.4389565 -3.4235314 -2.3155703 59.0117634 22.8535672 24.9897065 19.5174453
1.7973635 -0.2196148 0.8799211 0.531123 -0.438607 0.015938 -4.5485273 -5.6882354 -4.3015454 50.5790309 26.1859514 30.4250782 21.6814681
1.7068046 -0.1839347 0.9165351 0.552643 -0.360911 0.007013 -4.2092680 -6.5769658 -5.2980645 42.6727299 29.1562720 34.6636218 23.7106758
1.6088356 -0.1498159 0.9430398 0.566501 -0.289263 -0.004838 -3.3648801 -6.5292799 -5.4596468 35.6455210 31.7322210 37.9210510 25.5342066
1.9409685 -0.2608941 0.6954320 0.523036 -0.585989 0.009212 -2.1561634 -1.9394799 -0.4569233 65.8437752 22.1024648 8.7340647 17.9721203
1.8839872 -0.2249019 0.7607844 0.561766 -0.524000 0.014134 -4.7449841 -5.1620939 -2.0657209 58.9527638 25.4051489 16.2398775 19.7271697
1.8120499 -0.1905028 0.8154764 0.588684 -0.454592 0.013426 -5.5253956 -7.2929926 -3.7545392 51.5656316 28.5696113 22.4657584 21.8286474
1.7282098 -0.1574681 0.8590057 0.606152 -0.383709 0.007245 -5.0082095 -8.0319510 -4.7707759 44.3308985 31.4532814 27.4976488 23.6404777
1.6351984 -0.1256583 0.8919773 0.616302 -0.316212 -0.002702 -4.0349803 -7.8522877 -5.0929720 37.5765864 34.0570217 31.4808340 25.5266818
1.8717382 -0.1941345 0.6895228 0.611465 -0.511481 0.006771 -6.0013864 -7.2162563 -1.2893756 57.0629615 27.9324820 7.7911276 20.6061550
1.8110651 -0.1627421 0.7492412 0.636622 -0.455581 0.008895 -6.2968561 -8.8831038 -2.7810091 51.1042033 30.8295219 14.5522138 22.3064347
1.7360847 -0.1322098 0.7987327 0.652193 -0.394642 0.005687 -5.6496994 -9.4247823 -3.8857768 44.7551579 33.5996106 20.2307386 24.0270467
1.6497034 -0.1024365 0.8376346 0.659931 -0.333585 -0.001864 -4.5744934 -9.0575395 -4.3875998 38.6287747 36.1359900 24.8607566 25.7099631
1.7942697 -0.1366923 0.6837115 0.673257 -0.442898 0.003729 -6.6595295 -10.1673217 -1.4559056 49.3522932 32.9352936 7.0461066 22.9862725
1.7303679 -0.1087629 0.7377862 0.688260 -0.393997 0.003127 -5.9540985 -10.4550984 -2.6682298 44.2801880 35.5103017 13.1823130 24.3469992
1.6523104 -0.0808720 0.7817741 0.695447 -0.341564 -0.001868 -4.9018847 -9.9947155 -3.3981696 38.8742611 37.9744369 18.2794017 25.9997018
1.7110805 -0.0871749 0.6780731 0.714335 -0.383287 0.000953 -5.9686359 -11.1605799 -1.3229049 42.6845786 37.2931182 6.3125386 25.1329712
1.6434974 -0.0614233 0.7261552 0.721949 -0.340933 -0.002042 -4.9682150 -10.5396297 -2.2393771 38.3505959 39.6354528 11.8368682 26.4328601
1.6238184 -0.0441113 0.6723394 0.739388 -0.332500 -0.001750 -4.8225429 -10.7504729 -1.0682769 37.1823424 41.0126538 5.7768394 26.9200574
1.5917907 -0.0277534 0.6212299 0.749136 -0.315811 0.000001 -5.2676112 -12.5306545 -0.0000003 34.8445097 41.2331867 0.0000408 27.5994675
1.6770751 -0.0665222 0.6212299 0.730420 -0.362965 0.000001 -5.2158074 -10.5270297 -0.0000002 40.5274701 39.2527337 -0.0000054 25.7466689
1.7613413 -0.1119327 0.6212299 0.698566 -0.418176 0.000001 -6.5600619 -10.9917537 -0.0000002 46.5243995 35.0564901 0.0000219 23.9703745
1.8417033 -0.1649068 0.6212299 0.648273 -0.483335 0.000001 -6.6502782 -8.9484496 -0.0000002 53.7886821 30.4328940 0.0000100 21.5563802
1.9156530 -0.2267446 0.6212299 0.574074 -0.556655 0.000001 -4.5004386 -4.6581681 -0.0000001 62.2142510 25.0166687 0.0000100 19.1064956
1.9799779 -0.2986266 0.6212299 0.470043 -0.633227 0.000001 2.1900562 1.6329927 0.0000001 71.5833954 18.6939318 0.0000043 16.2672169
2.0305240 -0.3809265 0.6212299 0.331871 -0.702900 0.000001 14.2884097 6.7902280 0.0000003 81.0242090 11.1647628 0.0000132 13.7193236
2.0624453 -0.4722616 0.6212299 0.160677 -0.750520 0.000001 29.2410424 6.3475274 0.0000005 89.2560454 2.2853709 0.0000036 11.4604524
2.0712885 -0.5687083 0.6212299 -0.033071 -0.760427 0.000001 39.2568160 -1.5859461 0.0000007 94.5660953 -8.0524330 0.0000105 10.4608928
2.0547572 -0.6639833 0.6212299 -0.230019 -0.723451 0.000001 37.9416647 -11.9318500 0.0000007 95.4168116 -20.0302476 0.0000026 10.6517322
2.0140546 -0.7510842 0.6212299 -0.408471 -0.643019 0.000001 26.5923523 -16.7792375 0.0000005 90.5092409 -33.0395288 0.0000185 12.3041611
1.9536398 -0.8245468 0.6212299 -0.553087 -0.533104 0.000001 13.2040719 -13.6221675 0.0000003 79.9595923 -45.2160244 -0.0000099 14.5780167
1.8795724 -0.8817321 0.6212299 -0.659451 -0.411563 0.000001 3.7745185 -6.0141584 0.0000001 65.9592207 -54.5030203 0.0000264 17.2617516
1.7978250 -0.9226379 0.6212299 -0.730859 -0.292650 0.000001 -0.5622750 1.3951572 -0.0000000 51.1554755 -60.1137157 -0.0000215 19.5517521
1.7140441 -0.9488391 0.6212299 -0.775584 -0.182948 0.000001 -1.4522386 6.1012328 -0.0000001 38.0206305 -65.0458644 0.0000007 21.8178255
1.6556905 -0.9562226 0.5576660 -0.785938 -0.124016 0.006263 -1.6511581 10.4031081 1.2452779 29.6605987 -63.2923585 -8.8081669 22.9663541
1.6717404 -0.9400187 0.4891379 -0.757304 -0.148532 0.012482 -1.3986425 7.2234578 1.9916522 32.4221362 -60.9656966 -19.5627464 22.3647478
1.6780463 -0.9133781 0.4190784 -0.710561 -0.166823 0.017769 -1.2203214 5.4065194 2.4580878 33.7625615 -57.1385136 -30.0478900 22.1268027
1.6726981 -0.8768514 0.3511845 -0.647373 -0.176225 0.020158 -0.9743770 3.8342225 2.5643915 33.9118510 -51.7588982 -39.7765445 21.7900908
1.6549779 -0.8317142 0.2884687 -0.569868 -0.174432 0.019227 -0.7458609 2.6830506 2.5059403 32.5057608 -45.2500506 -48.1241471 21.9134312
1.6251196 -0.7798643 0.2333187 -0.482770 -0.160664 0.015300 -0.5428166 1.8285252 2.3342916 30.0161000 -38.2476152 -54.7608239 22.0477595
1.5840717 -0.7234578 0.1872446 -0.390791 -0.135783 0.009679 -0.4156912 1.3378526 2.3330878 26.6239253 -31.1891349 -59.6545586 22.6153532
1.5332039 -0.6645715 0.1508477 -0.298966 -0.102276 0.003977 -0.3101945 0.9694597 2.3552974 22.8639844 -24.5291246 -62.9985514 23.1367061
1.4740252 -0.6049592 0.1239623 -0.210599 -0.063533 -0.000316 -0.2304314 0.7077608 2.5107907 18.9112836 -18.4415446 -65.1015670 24.0510285
1.4079845 -0.5459563 0.1058838 -0.128919 -0.023174 -0.002393 -0.1467962 0.4452390 2.5457674 15.1909207 -13.0117443 -66.3254719 24.7468643
1.3363730 -0.4884965 0.0956067 -0.055323 0.015631 -0.002031 -0.0758738 0.2227932 2.6258648 11.7070204 -8.2187676 -66.9400446 25.7620999
1.2603191 -0.4331973 0.0919907 0.008919 0.050441 0.000457 -0.0130498 0.0205261 2.5448216 8.6493613 -4.0559619 -67.1768514 26.4756687
1.1808780 -0.3804791 0.0938702 0.063609 0.079565 0.004476 0.0385957 -0.1610822 2.7809365 5.9670573 -0.4032092 -67.0436809 27.4406131
1.0991817 -0.3306797 0.1000934 0.108389 0.102141 0.009307 0.0617057 -0.2494792 2.1816854 3.8416190 2.6875680 -66.9582959 27.9918747
1.0172387 -0.2844654 0.1093835 0.144114 0.117548 0.014345 -0.0843958 0.3559038 -2.1685718 1.6221938 6.6632479 -73.5117204 28.8972456
1.6238184 -0.0441113 0.5701204 0.739388 -0.332500 0.001752 -4.8225446 -10.7504765 1.0682769 37.1822366 41.0126916 -5.7768392 26.9200400
1.6434974 -0.0614233 0.5163046 0.721949 -0.340933 0.002044 -4.9682136 -10.5396267 2.2393760 38.3506280 39.6354671 -11.8368155 26.4329018
1.6523104 -0.0808720 0.4606857 0.695447 -0.341564 0.001870 -4.9018860 -9.9947180 3.3981700 38.8741692 37.9744819 -18.2793973 25.9996733
1.6497034 -0.1024365 0.4048252 0.659930 -0.333586 0.001866 -4.5744923 -9.0575371 4.3875983 38.6288608 36.1360157 -24.8606786 25.7100337
1.6351984 -0.1256583 0.3504825 0.616301 -0.316212 0.002704 -4.0349807 -7.8522885 5.0929721 37.5764657 34.0570641 -31.4808837 25.5266485
1.6088356 -0.1498159 0.2994199 0.566499 -0.289263 0.004840 -3.3648801 -6.5292798 5.4596464 35.6456511 31.7322907 -37.9209287 25.5343176
1.5712174 -0.1740273 0.2531805 0.512821 -0.253368 0.008165 -2.6635272 -5.2436128 5.5159418 32.9154998 29.1375657 -43.9782735 25.6529318
1.5234225 -0.1973673 0.2129193 0.457804 -0.209990 0.012252 -1.9831983 -4.0466539 5.2705897 29.4816168 26.3357705 -49.4468780 25.9033748
1.4668434 -0.2189825 0.1793224 0.403468 -0.161195 0.016363 -1.4063370 -3.0571102 4.8829608 25.5740362 23.3223166 -54.1946554 26.2603840
1.4030069 -0.2381755 0.1526135 0.351534 -0.109597 0.019700 -0.9332822 -2.2451764 4.3793375 21.3520483 20.2572417 -58.0659015 26.6622401
1.3334197 -0.2544469 0.1326302 0.302781 -0.057485 0.021742 -0.5877732 -1.6597153 3.9577253 17.0825643 17.0841791 -61.1182731 27.1065911
1.2594526 -0.2674905 0.1189272 0.257744 -0.007278 0.022100 -0.3115372 -1.1507127 3.3779634 12.9001685 14.0533569 -63.5120509 27.5549269
1.1822267 -0.2771505 0.1108873 0.216239 0.039343 0.020757 -0.1427892 -0.9079549 3.3272465 8.9351831 10.9316030 -64.7896051 28.0144745
1.1022567 -0.2832030 0.1078381 0.178283 0.081072 0.017916 0.0019639 -0.7492999 3.5058398 5.3261626 8.0721128 -65.4601962 28.3913485
1.7110805 -0.0871749 0.5643866 0.714335 -0.383287 -0.000951 -5.9686355 -11.1605790 1.3229043 42.6846701 37.2930752 -6.3125523 25.1329849
1.7303679 -0.1087629 0.5046736 0.688260 -0.393997 -0.003125 -5.9540993 -10.4550999 2.6682297 44.2801714 35.5102975 -13.1823139 24.3469633
1.7360847 -0.1322098 0.4437271 0.652193 -0.394642 -0.005684 -5.6496986 -9.4247810 3.8857758 44.7552175 33.5995678 -20.2307705 24.0270770
1.7282098 -0.1574681 0.3834541 0.606152 -0.383708 -0.007242 -5.0082110 -8.0319534 4.7707769 44.3308696 31.4532670 -27.4976608 23.6404052
1.7068046 -0.1839347 0.3259247 0.552642 -0.360911 -0.007011 -4.2092670 -6.5769642 5.2980630 42.6727949 29.1562319 -34.6636238 23.7107154
1.6724643 -0.2106779 0.2730926 0.493944 -0.326153 -0.004679 -3.3266785 -5.1428639 5.4207535 40.0139173 26.5433256 -41.5147853 23.7241596
1.6263577 -0.2366286 0.2265181 0.433723 -0.281168 -0.000636 -2.5110496 -3.9115229 5.2776830 36.2974115 23.7400629 -47.7556813 24.1908875
1.5700667 -0.2607527 0.1872007 0.374374 -0.228081 0.004229 -1.7933112 -2.8786974 4.9104330 31.9236750 20.6753307 -53.1503541 24.5194795
1.5053452 -0.2821813 0.1555527 0.318468 -0.170117 0.008900 -1.2236239 -2.0850390 4.4748331 27.0137708 17.5493489 -57.6000175 25.2012924
1.4338834 -0.3002709 0.1314835 0.266780 -0.110109 0.012455 -0.7706172 -1.4561240 3.9420816 22.0242638 14.3317293 -61.0825963 25.6760418
1.3571067 -0.3145931 0.1145459 0.220214 -0.051162 0.014289 -0.4487260 -1.0141269 3.5016234 16.9833475 11.2415138 -63.6328592 26.4281700
1.2759644 -0.3248421 0.1040911 0.178158 0.004902 0.014250 -0.2122114 -0.6801890 3.0620017 12.3029053 8.1695706 -65.3472588 26.8658662
1.1905494 -0.3305907 0.0994395 0.141105 0.056185 0.012427 -0.0454280 -0.4272538 2.6045442 7.7787265 5.3763562 -66.5519325 27.6296132
1.7942697 -0.1366923 0.5587483 0.673257 -0.442898 -0.003727 -6.6595306 -10.1673233 1.4559054 49.3522130 32.9353384 -7.0461184 22.9862649
1.8110651 -0.1627421 0.4932186 0.636621 -0.455581 -0.008893 -6.2968566 -8.8831044 2.7810088 51.1042330 30.8295297 -14.5521653 22.3064594
1.8120499 -0.1905028 0.4269834 0.588683 -0.454592 -0.013424 -5.5253957 -7.2929927 3.7545388 51.5655791 28.5696586 -22.4657543 21.8286347
1.7973635 -0.2196148 0.3625387 0.531122 -0.438607 -0.015936 -4.5485266 -5.6882344 4.3015443 50.5790725 26.1859777 -30.4250412 21.6815256
1.7675926 -0.2491715 0.3023588 0.467094 -0.407243 -0.015497 -3.5716944 -4.2893260 4.4965051 48.1365407 23.5339108 -38.2057245 21.8188453
1.7240014 -0.2779806 0.2485463 0.400724 -0.361823 -0.012201 -2.7098294 -3.1717822 4.4634156 44.2922159 20.6530111 -45.3647562 22.2213038
1.6684135 -0.3048179 0.2025505 0.335682 -0.304941 -0.007008 -1.9970894 -2.3170433 4.3053523 39.3862673 17.5341850 -51.6644855 22.8101285
1.6029140 -0.3286239 0.1650683 0.274975 -0.240378 -0.001286 -1.4050163 -1.6492259 4.0283263 33.7440880 14.3245749 -56.8316373 23.5560140
1.5295205 -0.3486034 0.1361297 0.220122 -0.171949 0.003658 -0.9461571 -1.1552916 3.7365803 27.7865711 11.0576308 -60.8433713 24.3513941
1.4499122 -0.3642177 0.1152815 0.171782 -0.103294 0.006916 -0.5781945 -0.7682587 3.3623153 21.8361775 7.8957804 -63.7077275 25.1509676
1.3652110 -0.3750848 0.1018047 0.129817 -0.037145 0.008085 -0.3120320 -0.4961650 3.0680411 16.1005256 4.8483084 -65.6016673 25.9753293
1.2757590 -0.3807744 0.0949020 0.093736 0.024200 0.007137 -0.1092755 -0.2865004 2.7173794 10.8208005 2.1043144 -66.6987554 26.6988703
1.8717382 -0.1941345 0.5529370 0.611465 -0.511481 -0.006769 -6.0013846 -7.2162540 1.2893748 57.0630248 27.9324352 -7.7911477 20.6061642
1.8839872 -0.2249019 0.4816753 0.561766 -0.524000 -0.014132 -4.7449843 -5.1620941 2.0657207 58.9527504 25.4051481 -16.2398776 19.7271451
1.8782515 -0.2570485 0.4104996 0.500605 -0.518562 -0.019918 -3.4389564 -3.4235313 2.3155701 59.0118038 22.8535166 -24.9897274 19.5174574
1.8549056 -0.2897285 0.3425607 0.431004 -0.493440 -0.022203 -2.3639636 -2.1764918 2.2324247 57.1949648 20.0462323 -33.7721098 19.4474794
1.8152023 -0.3216480 0.2807024 0.358196 -0.449840 -0.020560 -1.7446936 -1.5002957 2.2166172 53.3991872 17.0967418 -42.0589511 20.0051628
1.7612073 -0.3513863 0.2270320 0.286690 -0.390204 -0.015799 -1.3622316 -1.1035150 2.2968474 48.0940267 13.8658466 -49.4484664 20.6312142
1.6954327 -0.3776815 0.1827031 0.220776 -0.319423 -0.009517 -1.1418332 -0.8770323 2.5694744 41.5925966 10.5653433 -55.5468644 21.6871699
1.6203862 -0.3995862 0.1479629 0.162324 -0.242149 -0.003502 -0.8878319 -0.6485052 2.7328250 34.6123198 7.1956756 -60.2347802 22.5801098
1.5381989 -0.4164796 0.1223882 0.112522 -0.163342 0.000972 -0.6483250 -0.4486470 2.8730838 27.4470254 4.0038743 -63.5435391 23.7777932
1.4503924 -0.4279654 0.1051644 0.070567 -0.086548 0.003102 -0.3933021 -0.2524916 2.7825299 20.6899468 0.9991656 -65.6428978 24.6369260
1.3577544 -0.4337013 0.0953393 0.036408 -0.014665 0.002847 -0.1864064 -0.1000682 2.7194010 14.3141326 -1.6808948 -66.7747863 25.7355103
1.9409685 -0.2608941 0.5470278 0.523036 -0.585989 -0.009210 -2.1561624 -1.9394790 0.4569230 65.8437294 22.1025181 -8.7340559 17.9721143
1.9464651 -0.2964415 0.4703105 0.458495 -0.594612 -0.017968 0.1763901 0.1389553 -0.0761535 67.5220999 19.1645124 -18.1399405 17.3092716
1.9318160 -0.3325530 0.3949147 0.383824 -0.579652 -0.023419 1.5661779 1.0857430 -1.0539940 66.7693160 16.1388162 -27.8967555 17.1764698
1.8979374 -0.3678236 0.3245956 0.304392 -0.540687 -0.024227 1.7217754 1.0505190 -1.6422336 63.4975066 12.9638359 -37.4062406 17.6279693
1.8469846 -0.4006258 0.2623843 0.226439 -0.480450 -0.020636 1.0572174 0.5630702 -1.3755626 57.9444225 9.5639363 -46.1213261 18.4831913
1.7819149 -0.4294832 0.2101494 0.155069 -0.404331 -0.014438 0.2343536 0.1062854 -0.4122448 50.6538945 6.0921468 -53.3876808 19.6404456