# volRat = 0.650000
# viscRat = 5.000000
# alpha = 0.250000
# shRate = 5.500000
# tnum = 10300
# time = 8.253454
VARIABLES = X, Y, Z, U, V, W, F_B0, F_B1, F_B2, F_0, F_1, F_2, T
ZONE N=2562 E=5120 F=FEPOINT ET=TRIANGLE
1.4938805 0.0095212 0.6212299 0.754727 -0.276528 -0.000002 3.0891094 8.4524587 0.0000014 31.1500416 47.9518265 -0.0007638 28.8421849
-1.6491741 0.9596226 0.6212299 0.793621 0.116647 -0.000000 -2.1271686 14.3034347 0.0000040 -28.7933888 67.0236371 -0.0010030 22.8817083
1.6491741 -0.9596226 0.6212299 -0.793621 -0.116647 0.000000 2.1271691 -14.3034391 0.0000039 28.7933559 -67.0236566 -0.0012041 22.8817362
-1.4938805 -0.0095212 0.6212299 -0.754727 0.276528 -0.000002 -3.0891102 -8.4524610 0.0000014 -31.1500099 -47.9518451 -0.0007155 28.8422003
0.9341883 -0.2534142 1.1233371 0.152941 0.130875 -0.015779 -2.1793191 7.6370492 43.6330643 -1.3769622 12.0530223 98.3630991 29.1021664
0.9341883 -0.2534142 0.1191227 0.152944 0.130875 0.015768 -2.1794398 7.6376307 -43.6360422 -1.3767747 12.0529644 -98.3658817 29.0994772
-0.9341883 0.2534142 1.1233371 -0.152942 -0.130874 -0.015779 2.1793388 -7.6371192 43.6334606 1.3776913 -12.0534585 98.3633300 29.1017424
-0.9341883 0.2534142 0.1191227 -0.152943 -0.130876 0.015768 2.1794120 -7.6375334 -43.6354857 1.3759914 -12.0525085 -98.3654890 29.0998931
-0.1616139 0.4254365 0.8519981 0.454700 -0.221200 0.028283 -5.1389397 -11.7574151 -7.6110119 16.1764601 41.7725963 31.1163031 31.8511310
0.1616138 -0.4254366 0.8519981 -0.454732 0.221113 0.028337 5.3872386 12.3255154 -7.9786673 -15.9371477 -41.2137216 30.7539935 31.8505877
-0.1616130 0.4254385 0.3904604 0.456703 -0.216552 -0.031158 -13.3892993 -30.6341415 19.8270176 8.0824828 23.1844413 -19.1665197 31.8768087
0.1616130 -0.4254385 0.3904604 -0.456719 0.216530 -0.031178 13.3141279 30.4620875 19.7158188 -8.1515970 -23.3533028 -19.2783697 31.8775073
1.5176400 -0.0004734 0.6653581 0.752647 -0.284479 -0.003574 -4.3593645 -11.5516014 -0.8979925 31.3830868 44.4764232 4.7111762 28.6837011
1.5364636 -0.0137306 0.7137073 0.742260 -0.289581 -0.006606 -3.9530068 -10.1182614 -1.7793074 32.4766064 43.5446629 10.5401971 28.1463405
1.5478581 -0.0298692 0.7647396 0.723875 -0.289503 -0.008987 -3.8424298 -9.5497576 -2.7081022 32.9115423 42.2545824 16.4549779 27.9281531
1.5500962 -0.0485197 0.8166853 0.696816 -0.282965 -0.011031 -3.6694115 -8.9221502 -3.6006122 32.8778703 40.5215035 22.5422734 27.4724252
1.5421789 -0.0692822 0.8680125 0.661953 -0.269347 -0.013175 -3.3588718 -8.0690719 -4.3397670 32.1795758 38.6489912 28.7205738 27.3801256
1.5236604 -0.0916037 0.9171808 0.619947 -0.248087 -0.015747 -2.9256199 -7.0299944 -4.8440528 30.8811836 36.4491408 34.8138620 27.1058837
1.4946240 -0.1147851 0.9627611 0.572726 -0.219473 -0.018826 -2.4273265 -5.9239087 -5.0980259 28.8553854 33.9963052 40.6587637 27.1921540
1.4556300 -0.1380319 1.0035528 0.521824 -0.184100 -0.022239 -1.8984091 -4.7964390 -5.0693367 26.3057864 31.2314319 46.1205598 27.1314384
1.4076209 -0.1605332 1.0386849 0.469519 -0.143535 -0.025498 -1.4113093 -3.7836636 -4.8591017 23.1756997 28.2798726 51.0053255 27.4035949
1.3517977 -0.1815417 1.0676628 0.417107 -0.099362 -0.028135 -0.9774433 -2.8757458 -4.4620674 19.7853122 25.1143414 55.2635130 27.4812780
1.2894987 -0.2004362 1.0903577 0.366268 -0.053814 -0.029611 -0.6430670 -2.1828980 -4.0876712 16.1248363 21.8624669 58.7430105 27.8857590
1.2221095 -0.2167581 1.1069559 0.317530 -0.008842 -0.029586 -0.3883547 -1.6567072 -3.7575793 12.5203257 18.5249855 61.4141924 28.0303932
1.1510487 -0.2302238 1.1178880 0.271772 0.033602 -0.027927 -0.1556661 -1.0043622 -2.7846763 8.9849661 15.5700406 64.2620489 28.4706085
1.0778216 -0.2407326 1.1237623 0.228739 0.072120 -0.024732 -0.0580101 -1.1938253 -4.1128873 5.6800477 11.8786758 64.4012671 28.6201027
1.0046559 -0.2483461 1.1253035 0.189128 0.104932 -0.019979 0.3320264 -3.2997218 -14.5748512 2.8554627 6.9087937 56.0782040 29.0441504
1.7605857 -0.9300499 0.6944069 -0.741887 -0.245323 -0.008668 -1.0811473 3.2652171 -0.5228473 45.0592445 -60.8328826 11.4504903 20.5217157
1.7758693 -0.9057885 0.7694581 -0.698306 -0.275010 -0.015986 -0.7177285 1.8477958 -0.6481782 47.8115546 -57.0965471 23.0734101 20.0063896
1.7768881 -0.8712595 0.8436034 -0.636373 -0.291827 -0.020826 -0.1637453 0.3698937 -0.2150427 48.5286172 -51.5795374 34.3959834 19.6570953
1.7632193 -0.8275564 0.9133814 -0.558266 -0.293551 -0.021883 0.1622084 -0.3272850 0.2849868 46.9861220 -44.8075651 44.2457378 19.6863929
1.7351963 -0.7766883 0.9757708 -0.469127 -0.279281 -0.019083 0.1850095 -0.3366052 0.4214173 43.6578004 -37.3627228 52.1867111 19.9895278
1.6940727 -0.7210779 1.0286925 -0.374707 -0.250033 -0.013701 0.0035941 -0.0058965 0.0105362 38.9816915 -29.8875656 57.9848244 20.6324638
1.6416808 -0.6630719 1.0712101 -0.280399 -0.208967 -0.007711 -0.1938951 0.2826966 -0.7367549 33.6828358 -22.8832419 61.9498443 21.4935838
1.5800233 -0.6045992 1.1033892 -0.190509 -0.160462 -0.002858 -0.3048270 0.3784435 -1.5294642 28.2419174 -16.5840416 64.3890517 22.4955599
1.5109654 -0.5470403 1.1259821 -0.107948 -0.109116 -0.000231 -0.3200340 0.3017624 -2.1872970 23.0609630 -11.0406379 65.7746179 23.5694428
1.4360817 -0.4912647 1.1401086 -0.034252 -0.058879 -0.000160 -0.2587276 0.1207007 -2.5301972 18.3218906 -6.2726727 66.4546726 24.6591498
1.3566237 -0.4377478 1.1470083 0.029770 -0.012774 -0.002363 -0.1785980 -0.0760738 -2.7141465 14.1400880 -2.1503895 66.6948140 25.6929386
1.2735490 -0.3867021 1.1479068 0.083964 0.027242 -0.006223 -0.0971160 -0.2490002 -2.6990856 10.5557732 1.3881320 66.6774164 26.6495500
1.1875283 -0.3381757 1.1439387 0.128724 0.060147 -0.011002 -0.0309577 -0.3784851 -2.5788395 7.4438246 4.4458666 66.5937810 27.5694798
1.0987115 -0.2921468 1.1361559 0.163922 0.085776 -0.015980 0.0234582 -0.6518586 -3.3810587 4.9457752 6.9799086 65.6650138 28.3222300
1.8448671 -0.8935477 0.7008595 -0.678902 -0.361592 -0.009239 1.4901236 -2.7958171 0.5563830 59.4340497 -56.0862384 12.8077614 18.2396357
1.8574919 -0.8609641 0.7814242 -0.619202 -0.392462 -0.016506 2.9408495 -4.7000309 2.0867848 61.9372861 -50.6324514 25.7287510 17.5157716
1.8522906 -0.8187020 0.8589840 -0.540999 -0.403434 -0.019680 3.5056642 -4.8489954 3.6689677 61.1465024 -43.7939364 37.3677608 17.4908251
1.8299417 -0.7685454 0.9298060 -0.449838 -0.393908 -0.018357 3.1432609 -3.7685478 4.4476923 57.6999198 -36.0412182 47.0381303 17.6877013
1.7919751 -0.7130544 0.9910475 -0.351647 -0.364493 -0.013678 2.0565476 -2.1062040 3.7963930 52.0696488 -28.2187305 54.3028585 18.5490602
1.7406735 -0.6548646 1.0411826 -0.253415 -0.319166 -0.007684 0.9447443 -0.7930972 2.2466512 45.4756548 -20.7944668 59.3131596 19.4723061
1.6785796 -0.5961729 1.0799676 -0.159649 -0.263085 -0.002676 0.1072656 -0.0667984 0.3287130 38.5266349 -14.1852160 62.4798289 20.8411319
1.6080518 -0.5385255 1.1080943 -0.074077 -0.202232 0.000031 -0.3038989 0.1044683 -1.2114849 31.9038749 -8.3940907 64.2862589 22.0483046
1.5310150 -0.4828440 1.1267600 0.002026 -0.141484 -0.000159 -0.4373215 -0.0193544 -2.3084440 25.8114019 -3.4518065 65.2083828 23.4912041
1.4488892 -0.4295703 1.1373406 0.067607 -0.084737 -0.002903 -0.3878511 -0.2417811 -2.7870718 20.5275728 0.7890008 65.5701502 24.6068578
1.3625929 -0.3788276 1.1411797 0.123170 -0.034194 -0.007602 -0.2986812 -0.4652938 -3.0492212 15.8490629 4.3696674 65.6103619 25.9411779
1.2725071 -0.3305442 1.1395028 0.168335 0.008782 -0.013330 -0.1943704 -0.6294466 -3.0240995 11.9803938 7.4500110 65.4446356 26.8210280
1.1782339 -0.2845569 1.1333834 0.203853 0.043981 -0.019328 -0.1201387 -0.8290468 -3.2586419 8.5675443 9.9939073 64.9940121 27.9509939
1.9220987 -0.8414855 0.7060331 -0.584384 -0.482955 -0.008687 8.6243845 -10.4257392 2.6653699 73.7901603 -47.8494629 13.9258385 15.6778045
1.9287334 -0.8007691 0.7905509 -0.507031 -0.508185 -0.013580 10.4512289 -10.5304824 6.2410920 74.7664856 -41.1200405 27.2054353 15.2692166
1.9148040 -0.7516807 0.8699490 -0.414376 -0.507127 -0.013898 9.7844800 -8.1755728 8.7295564 71.8138990 -33.3886652 38.8003268 15.4464330
1.8820387 -0.6967678 0.9403055 -0.313769 -0.480470 -0.009933 7.1714544 -4.8185029 8.7328426 65.8335934 -25.5123308 47.8461735 16.2695098
1.8331883 -0.6388750 0.9991952 -0.212570 -0.432664 -0.004185 4.0524783 -2.0246503 6.4777538 58.0645875 -17.9114650 54.4011050 17.5108273
1.7714544 -0.5804485 1.0458216 -0.116466 -0.370037 0.000850 1.5789618 -0.4757306 3.2592826 49.6199606 -11.1571948 58.6823613 19.0428324
1.6998482 -0.5231978 1.0806602 -0.029218 -0.300022 0.003389 0.1163021 -0.0065072 0.3087402 41.4144205 -5.2393809 61.2931201 20.6458253
1.6208046 -0.4680978 1.1049267 0.047549 -0.228833 0.002714 -0.5084397 -0.1346690 -1.7425557 33.8996007 -0.2184376 62.7238426 22.2488263
1.5360600 -0.4155642 1.1201185 0.113451 -0.161253 -0.000952 -0.6495870 -0.4569641 -2.9047096 27.2448007 4.0518400 63.4397995 23.7719106
1.4466722 -0.3656570 1.1277330 0.168493 -0.100186 -0.006790 -0.5649929 -0.7507527 -3.3556319 21.5617379 7.6557433 63.7116297 25.1395963
1.3530478 -0.3182454 1.1291276 0.213213 -0.047238 -0.013842 -0.4274536 -0.9680912 -3.4674076 16.6536987 10.7323891 63.7475369 26.3977428
1.2548855 -0.2731352 1.1254923 0.247652 -0.002661 -0.021191 -0.2875866 -1.0824420 -3.3311328 12.5317381 13.2915153 63.7372978 27.5056881
1.9872699 -0.7732069 0.7098862 -0.452711 -0.597060 -0.006046 20.2741831 -15.3319927 5.4523332 85.6064541 -36.6025998 14.2983572 13.2685376
1.9847719 -0.7256077 0.7964928 -0.359861 -0.608951 -0.007445 20.5405203 -12.1786636 10.8325317 84.1651156 -29.2243305 27.4425187 13.1054253
1.9599640 -0.6718677 0.8757992 -0.258098 -0.589054 -0.004049 16.2502943 -7.1347363 12.9504258 78.5935586 -21.6259683 38.3603614 13.9857488
1.9157705 -0.6149354 0.9440998 -0.155683 -0.541978 0.001651 10.1625875 -2.8344027 11.1494909 70.3225003 -14.2344169 46.7478210 15.2678809
1.8559968 -0.5574458 0.9996535 -0.059102 -0.475060 0.006844 4.7425557 -0.4634072 6.8701697 60.7517713 -7.6015906 52.6020152 17.1510991
1.7844098 -0.5012496 1.0424330 0.027613 -0.397480 0.009341 1.3155269 0.1589361 2.4681257 51.1502270 -1.7196202 56.3923641 18.9498426
1.7041126 -0.4473680 1.0734985 0.103183 -0.316874 0.008068 -0.3803873 -0.1509065 -0.9174038 42.1967431 3.2515533 58.7331570 20.9768647
1.6173291 -0.3961921 1.0944011 0.167135 -0.239299 0.003424 -0.9121801 -0.6903112 -2.8281297 34.3138770 7.4933130 60.0609262 22.6123343
1.5254306 -0.3477301 1.1067728 0.220227 -0.168348 -0.003816 -0.9388747 -1.1637602 -3.7647487 27.4534158 11.0499516 60.7991771 24.3698591
1.4290441 -0.3018051 1.1121294 0.262713 -0.105940 -0.012425 -0.7478404 -1.4245606 -3.9264586 21.6643343 14.0453569 61.1729711 25.6738005
1.3281382 -0.2581970 1.1117995 0.295178 -0.052823 -0.021328 -0.5575136 -1.5906703 -3.9113551 16.7063160 16.5412857 61.3504737 27.0815469
2.0345737 -0.6903697 0.7119755 -0.285448 -0.687555 -0.001804 32.2233850 -13.2793574 7.8406037 92.4442418 -23.7749595 13.9561874 11.4337713
2.0206204 -0.6384700 0.7985801 -0.184000 -0.679044 0.001374 27.8202848 -7.4093451 13.4447632 88.3424971 -16.7649236 26.3092002 12.0002887
1.9839475 -0.5832741 0.8759161 -0.082107 -0.637166 0.007399 18.7804973 -2.1864808 13.8533162 80.5687425 -9.9302989 36.4639446 13.4071589
1.9285792 -0.5275106 0.9409117 0.012854 -0.570138 0.013301 9.7176832 0.4934669 9.9436687 70.7263613 -3.5984918 44.0951515 15.3822729
1.8589296 -0.4731213 0.9926217 0.097062 -0.488295 0.016132 3.3689971 0.8384170 4.5756773 60.2038393 2.0872288 49.4713028 17.5610683
1.7788413 -0.4211551 1.0316488 0.169024 -0.400824 0.014783 0.0338288 0.0166898 0.0596630 50.1713273 6.9134389 52.9990579 19.7294172
1.6911635 -0.3719754 1.0594147 0.229233 -0.315232 0.009349 -1.2219399 -0.9816846 -2.7699940 41.1207513 11.0677333 55.2857094 21.7677576
1.5977347 -0.3255411 1.0776088 0.278328 -0.235859 0.000885 -1.4125786 -1.7007435 -4.1035811 33.2986778 14.5274157 56.7276209 23.6166708
1.4995339 -0.2816320 1.0878771 0.317284 -0.165421 -0.009240 -1.1987646 -2.0741963 -4.4750147 26.5852537 17.4710111 57.6559222 25.2344379
1.3968581 -0.2399954 1.0916960 0.346449 -0.104700 -0.019751 -0.8992263 -2.1887628 -4.3494015 20.9402054 19.9036233 58.2771782 26.6597366
2.0590334 -0.5975115 0.7119419 -0.094376 -0.738892 0.003294 36.9620357 -4.5661276 8.3982766 93.4793876 -11.4456147 13.0488310 10.7199872
2.0328481 -0.5448005 0.7964913 0.005449 -0.707372 0.010175 27.1901700 0.4766753 12.4055917 87.2924927 -5.3160222 24.4277176 11.8803343
1.9849314 -0.4915372 0.8703728 0.097315 -0.645719 0.017340 15.2062577 2.6327715 10.6813753 78.1659091 0.5483995 33.6736285 13.9561883
1.9199221 -0.4396809 0.9313508 0.177064 -0.564519 0.021501 5.9460865 2.1116170 5.8312172 67.6718174 5.8761119 40.6660819 16.1570840
1.8422574 -0.3902790 0.9791643 0.243737 -0.474510 0.020923 0.6195454 0.3570611 0.8097783 57.1428556 10.5366644 45.6679607 18.6484942
1.7554503 -0.3436607 1.0148066 0.298226 -0.384125 0.015505 -1.5422481 -1.3132314 -2.6221531 47.3873997 14.5382134 49.1179683 20.7772323
1.6619144 -0.2997397 1.0398415 0.341878 -0.299097 0.006385 -2.0341237 -2.4379879 -4.4415924 38.7799544 17.9179885 51.4928327 22.9255519
1.5630934 -0.2582571 1.0559626 0.375807 -0.222552 -0.004892 -1.7678696 -2.8999120 -4.9297855 31.3977196 20.7890442 53.1593145 24.5932432
1.4596723 -0.2189337 1.0647631 0.400775 -0.155876 -0.016821 -1.3652918 -3.0140084 -4.8608592 25.1070440 23.1655142 54.3650499 26.2942276
2.0583570 -0.5012436 0.7097632 0.100599 -0.743937 0.007669 30.5807989 4.2945847 6.6606002 89.6109328 -0.6397364 11.9255176 11.3982204
2.0209415 -0.4510823 0.7905886 0.188616 -0.693247 0.016589 18.5074181 5.2890531 8.1693140 82.1265864 4.6268712 22.2052077 13.1611633
1.9637299 -0.4023194 0.8600919 0.263325 -0.618956 0.022912 7.7273212 3.5104243 5.2884869 72.5796076 9.5927414 30.5762378 15.4462350
1.8913264 -0.3559652 0.9168039 0.323914 -0.531901 0.024305 0.9548928 0.6273665 0.9168394 62.3386664 14.0211122 36.9573528 17.8822073
1.8077474 -0.3123081 0.9609120 0.371967 -0.441498 0.020072 -2.0624513 -1.8685778 -2.6460829 52.4203487 17.8869787 41.6995676 20.2265643
1.7159959 -0.2712209 0.9935718 0.409137 -0.354317 0.011349 -2.7807882 -3.3784432 -4.6416662 43.4979898 21.1872766 45.1611083 22.3937748
1.6180601 -0.2324166 1.0163507 0.437339 -0.274534 -0.000320 -2.4915258 -3.9859920 -5.3289323 35.6332765 24.0043294 47.7035643 24.3139646
1.5150907 -0.1956005 1.0308803 0.457224 -0.204044 -0.013067 -1.9347175 -4.0249092 -5.2589341 28.9279716 26.3471525 49.5717348 25.9763023
2.0337533 -0.4082050 0.7058142 0.278842 -0.707943 0.010200 17.2629937 6.9035954 3.6830480 82.3557118 8.6207744 10.7581389 13.2234641
1.9873215 -0.3628403 0.7818273 0.349010 -0.646214 0.019000 7.4626634 4.1500328 3.2506024 74.4819079 13.0974924 19.9984247 15.1298505
1.9232539 -0.3197784 0.8465195 0.404166 -0.568084 0.023234 0.4907948 0.3646077 0.3331889 65.2903955 17.2289589 27.5207161 17.5210537
1.8456631 -0.2792585 0.8989649 0.445939 -0.482815 0.021519 -2.8255646 -2.7424953 -2.6990061 55.9449060 20.9043720 33.4326977 19.7417097
1.7579796 -0.2411180 0.9395688 0.476925 -0.397983 0.014446 -3.6944854 -4.6189950 -4.7181458 47.1217932 24.1549489 37.9691106 22.0549196
1.6627397 -0.2050518 0.9695152 0.499144 -0.318287 0.003491 -3.3067783 -5.2699782 -5.4839436 39.1997540 26.9347728 41.4268282 23.8999494
1.5616269 -0.1707669 0.9903214 0.513921 -0.246660 -0.009259 -2.6015996 -5.2400059 -5.5045214 32.2652476 29.2950160 44.0596739 25.7661291
1.9890715 -0.3231094 0.7007019 0.426953 -0.645111 0.010475 4.6147688 3.0844756 0.9812345 73.3430626 16.5087923 9.6362307 15.7127199
1.9360855 -0.2833669 0.7713629 0.478241 -0.580842 0.017613 -1.0238421 -0.8600645 -0.4468233 65.8169328 20.2430366 17.8835794 17.7201311
1.8672905 -0.2459617 0.8311139 0.515598 -0.506001 0.019119 -3.9685998 -4.1620159 -2.7075278 57.5471465 23.7408794 24.7216831 19.8761001
1.7861627 -0.2106905 0.8793312 0.541504 -0.427757 0.014772 -4.6851947 -6.1091277 -4.5002562 49.3817776 26.8729490 30.2176955 21.9745813
1.6956394 -0.1772395 0.9165058 0.558761 -0.351847 0.005677 -4.1757712 -6.7433597 -5.3524205 41.7163755 29.6391835 34.5705660 23.9329463
1.5979533 -0.1453366 0.9438191 0.568785 -0.281758 -0.006132 -3.2851840 -6.5398452 -5.4446120 34.8904384 32.0012117 37.9750994 25.6877328
1.9290860 -0.2480900 0.6950286 0.541032 -0.571020 0.008916 -3.2042733 -3.0576359 -0.6877573 64.0467280 23.1356183 8.6148864 18.4201295
1.8715372 -0.2136901 0.7601822 0.575846 -0.510218 0.013407 -5.2223908 -5.9747019 -2.3075120 57.3663363 26.2931481 16.0674146 20.1289491
1.7994139 -0.1811255 0.8149687 0.598825 -0.442603 0.012314 -5.6317319 -7.7529645 -3.8919739 50.2399190 29.2942240 22.3075503 22.1637982
1.7156963 -0.1500577 0.8589053 0.612552 -0.373699 0.005906 -4.9472989 -8.2122982 -4.8034500 43.2572653 32.0028685 27.4159994 23.9032951
1.6230734 -0.1202573 0.8925590 0.619262 -0.308021 -0.004063 -3.9304067 -7.8622270 -5.0685976 36.7271306 34.4157660 31.5162651 25.7197747
1.8581495 -0.1832358 0.6892407 0.623924 -0.497352 0.006324 -6.3121843 -7.9602263 -1.3786442 55.4617402 28.7906060 7.7183505 21.0201870
1.7972614 -0.1532948 0.7489138 0.645912 -0.443070 0.008015 -6.3286532 -9.3048423 -2.8464679 49.7221802 31.5615587 14.4614639 22.6631527
1.7224169 -0.1244191 0.7986538 0.658342 -0.384066 0.004503 -5.5452952 -9.5792762 -3.8911952 43.6106379 34.1850107 20.1809508 24.3189578
1.6364712 -0.0964083 0.8380890 0.663097 -0.324917 -0.003158 -4.4408922 -9.0484751 -4.3541333 37.7144968 36.5547882 24.8955866 25.9272509
1.7796434 -0.1275170 0.6835843 0.681270 -0.430540 0.003254 -6.5984593 -10.4810300 -1.4710049 47.9917440 33.6515857 7.0100841 23.3467603
1.7158190 -0.1008933 0.7377747 0.693768 -0.383328 0.002265 -5.8063458 -10.5531646 -2.6574255 43.1168063 36.1092271 13.1590977 24.6486221
1.6381818 -0.0744900 0.7821494 0.698469 -0.332719 -0.002946 -4.7413109 -9.9514494 -3.3621381 37.9228734 38.4332134 18.3121327 26.2361748
1.6959737 -0.0795008 0.6781108 0.718942 -0.372980 0.000502 -5.7854485 -11.1826044 -1.3109789 41.5601948 37.8813399 6.3150209 25.4293111
1.6287358 -0.0549320 0.7264585 0.724570 -0.332215 -0.002806 -4.7929617 -10.4624716 -2.2114786 37.3950651 40.0956538 11.8728164 26.6743873
1.6087168 -0.0377323 0.6725315 0.741443 -0.324195 -0.002127 -4.6185912 -10.5827280 -1.0480131 36.2937877 41.5319683 5.8065734 27.1550794
1.5766771 -0.0217259 0.6212299 0.750445 -0.308235 -0.000003 -5.1345881 -12.5318041 -0.0000002 33.9706254 41.5690912 -0.0001328 27.8135863
1.6617682 -0.0593243 0.6212299 0.733911 -0.353459 -0.000002 -5.0506599 -10.5136657 -0.0000001 39.4743664 39.7848681 -0.0002098 26.0234765
1.7462756 -0.1033485 0.6212299 0.704997 -0.406594 -0.000003 -6.4191013 -11.1595181 -0.0000001 45.2566959 35.7257126 0.0001321 24.3061433
1.8273868 -0.1547025 0.6212299 0.658655 -0.469740 -0.000002 -6.7592094 -9.5045538 -0.0000001 52.2680623 31.2364369 -0.0001811 21.9546166
1.9026922 -0.2146967 0.6212299 0.589522 -0.541610 -0.000003 -5.1963872 -5.6743958 -0.0000000 60.4605922 25.9755005 0.0002175 19.5546229
1.9691150 -0.2845990 0.6212299 0.491613 -0.618123 -0.000002 0.5259204 0.4199521 0.0000000 69.6786637 19.8559259 -0.0001834 16.7297960
2.0226345 -0.3650080 0.6212299 0.359996 -0.690110 -0.000003 11.6855418 6.1302616 0.0000000 79.1770039 12.5783265 0.0001541 14.1353466
2.0584297 -0.4549297 0.6212299 0.194438 -0.743108 -0.000002 26.6474672 7.0489975 -0.0000001 87.7594254 3.9895665 -0.0001457 11.7378276
2.0718170 -0.5509072 0.6212299 0.003580 -0.760985 -0.000002 38.2455727 0.2934376 -0.0000001 93.7284953 -6.0292943 0.0001076 10.5064370
2.0599650 -0.6469687 0.6212299 -0.194458 -0.732760 -0.000001 39.2109044 -10.2760694 -0.0000002 95.5298953 -17.6726066 -0.0001920 10.4332002
2.0234225 -0.7360420 0.6212299 -0.377647 -0.659477 -0.000002 29.1459852 -16.5733083 -0.0000002 91.7460580 -30.5754883 0.0000798 11.8851783
1.9661898 -0.8122349 0.6212299 -0.528953 -0.553668 -0.000001 15.5093772 -14.7336626 -0.0000001 82.1328636 -43.0620686 -0.0002450 14.0580986
1.8942148 -0.8723769 0.6212299 -0.642085 -0.433195 -0.000002 5.1032866 -7.5230624 -0.0000000 68.5798785 -52.9443640 -0.0000711 16.7375421
1.8136172 -0.9160615 0.6212299 -0.719188 -0.313216 -0.000001 -0.0799868 0.1825531 0.0000000 53.7608584 -59.1610409 -0.0004213 19.0698193
1.7302789 -0.9446332 0.6212299 -0.768254 -0.201360 -0.000002 -1.4109600 5.3406563 0.0000000 40.4031073 -64.5580078 -0.0004748 21.4062830
1.6717726 -0.9533977 0.5575263 -0.780563 -0.140566 0.006511 -1.8089253 9.9989051 1.2130911 31.7244256 -63.0461421 -8.8808295 22.5994369
1.6872834 -0.9367058 0.4888321 -0.750998 -0.165120 0.012896 -1.4614163 6.7324523 1.8851726 34.4735742 -60.5689013 -19.7300868 21.9911270
1.6925895 -0.9096926 0.4186583 -0.703434 -0.182711 0.018257 -1.2268115 4.9067314 2.2684043 35.6839054 -56.6377617 -30.2690857 21.7720870
1.6858151 -0.8730182 0.3507690 -0.639794 -0.190679 0.020608 -0.9493657 3.4051285 2.3175271 35.6067753 -51.1776456 -39.9979671 21.4656082
1.6663328 -0.8280589 0.2882071 -0.562405 -0.186782 0.019575 -0.7183364 2.3757630 2.2582742 33.8913080 -44.6594282 -48.2887968 21.6395286
1.6345038 -0.7767809 0.2333358 -0.476216 -0.170509 0.015550 -0.5269719 1.6467156 2.1374941 31.0749660 -37.7126055 -54.8399060 21.8245322
1.5914103 -0.7213561 0.1875967 -0.385965 -0.142976 0.009859 -0.4154366 1.2537852 2.2173814 27.3689726 -30.7925852 -59.6309227 22.4504920
1.5385361 -0.6638189 0.1515033 -0.296562 -0.106960 0.004112 -0.3171402 0.9438615 2.3124548 23.3254549 -24.3170205 -62.8933082 23.0165832
1.4774739 -0.6058362 0.1248114 -0.211144 -0.066003 -0.000260 -0.2365029 0.7096930 2.5096618 19.1429893 -18.4528323 -64.9480150 23.9681828
1.4097277 -0.5486303 0.1067643 -0.132676 -0.023793 -0.002519 -0.1476876 0.4607815 2.5597592 15.2401490 -13.2511831 -66.1543847 24.6846161
1.3366227 -0.4930135 0.0963370 -0.062299 0.016565 -0.002477 -0.0709624 0.2479044 2.6352834 11.6131467 -8.7049382 -66.7791740 25.7111722
1.2593099 -0.4394857 0.0924000 -0.001042 0.052642 -0.000437 -0.0038370 0.0540114 2.5423075 8.4433238 -4.7674116 -67.0483639 26.4239631
1.1788609 -0.3883604 0.0938215 0.051074 0.082812 0.003059 0.0520742 -0.1133924 2.7631253 5.6767553 -1.3283159 -66.9638092 27.3871505
1.0964218 -0.3398848 0.0994998 0.093842 0.106239 0.007355 0.0746727 -0.2048902 2.1762439 3.4893844 1.5777203 -66.9238623 27.9243487
1.0140086 -0.2946516 0.1082219 0.128193 0.122279 0.011925 -0.0792134 0.2443599 -1.7317375 1.2035499 5.1719230 -73.0483741 28.8225893
1.6087168 -0.0377323 0.5699283 0.741445 -0.324196 0.002122 -4.6186019 -10.5827527 1.0480153 36.2929268 41.5321374 -5.8067433 27.1547226
1.6287358 -0.0549320 0.5160012 0.724569 -0.332214 0.002798 -4.7929530 -10.4624528 2.2114743 37.3955329 40.0956736 -11.8721374 26.6746957
1.6381818 -0.0744900 0.4603103 0.698472 -0.332719 0.002941 -4.7413225 -9.9514738 3.3621461 37.9224080 38.4330483 -18.3127569 26.2356489
1.6364712 -0.0964083 0.4043707 0.663097 -0.324917 0.003150 -4.4408829 -9.0484561 4.3541240 37.7150853 36.5549550 -24.8948243 25.9277939
1.6230734 -0.1202573 0.3499007 0.619265 -0.308020 0.004058 -3.9304141 -7.8622419 5.0686070 36.7268705 34.4153808 -31.5168718 25.7190745
1.5979533 -0.1453366 0.2986407 0.568786 -0.281758 0.006124 -3.2851811 -6.5398395 5.4446070 34.8912064 32.0015975 -37.9742349 25.6884425
1.5616269 -0.1707669 0.2521383 0.513924 -0.246660 0.009254 -2.6015966 -5.2399999 5.5045149 32.2648752 29.2942179 -44.0606233 25.7654607
1.5150907 -0.1956005 0.2115794 0.457224 -0.204045 0.013058 -1.9347233 -4.0249213 5.2589497 28.9291769 26.3479421 -49.5706554 25.9770836
1.4596723 -0.2189336 0.1776966 0.400778 -0.155874 0.016815 -1.3652794 -3.0139811 4.8608150 25.1066954 23.1641261 -54.3662066 26.2935037
1.3968581 -0.2399954 0.1507638 0.346451 -0.104701 0.019743 -0.8992364 -2.1887876 4.3494506 20.9413602 19.9046899 -58.2763141 26.6610186
1.3281382 -0.2581970 0.1306603 0.295181 -0.052821 0.021322 -0.5574998 -1.5906310 3.9112583 16.7062725 16.5391720 -61.3516547 27.0805709
1.2548855 -0.2731352 0.1169674 0.247654 -0.002663 0.021181 -0.2875873 -1.0824448 3.3311412 12.5329980 13.2928486 -63.7367534 27.5072328
1.1782339 -0.2845569 0.1090764 0.203857 0.043986 0.019320 -0.1201395 -0.8290521 3.2586626 8.5668368 9.9902684 -64.9951402 27.9505942
1.0987115 -0.2921468 0.1063039 0.163924 0.085774 0.015969 0.0234576 -0.6518425 3.3809751 4.9475977 6.9810902 -65.6649251 28.3234759
1.6959737 -0.0795008 0.5643490 0.718941 -0.372980 -0.000508 -5.7854393 -11.1825867 1.3109766 41.5607040 37.8812554 -6.3147823 25.4295785
1.7158190 -0.1008933 0.5046850 0.693770 -0.383329 -0.002268 -5.8063531 -10.5531778 2.6574285 43.1164367 36.1091865 -13.1597369 24.6484117
1.7224169 -0.1244191 0.4438060 0.658342 -0.384066 -0.004509 -5.5452856 -9.5792597 3.8911883 43.6109091 34.1851844 -20.1804653 24.3193178
1.7156963 -0.1500577 0.3835544 0.612555 -0.373699 -0.005910 -4.9473071 -8.2123119 4.8034579 43.2567538 32.0026640 -27.4166879 23.9028818
1.6956394 -0.1772394 0.3259540 0.558763 -0.351848 -0.005684 -4.1757654 -6.7433505 5.3524130 41.7164505 29.6395347 -34.5701520 23.9334774
1.6627397 -0.2050518 0.2729446 0.499148 -0.318287 -0.003496 -3.3067834 -5.2699865 5.4839520 39.1991584 26.9344595 -41.4273562 23.8992550
1.6180601 -0.2324166 0.2261090 0.437342 -0.274535 0.000313 -2.4915259 -3.9859923 5.3289326 35.6333104 24.0049376 -47.7030568 24.3145579
1.5630934 -0.2582571 0.1864971 0.375812 -0.222552 0.004886 -1.7678715 -2.8999151 4.9297906 31.3966498 20.7885510 -53.1598654 24.5924592
1.4995339 -0.2816320 0.1545826 0.317287 -0.165422 0.009232 -1.1987704 -2.0742063 4.4750363 26.5855231 17.4721445 -57.6551779 25.2348572
1.4290441 -0.3018051 0.1303304 0.262719 -0.105939 0.012417 -0.7478413 -1.4245624 3.9264635 21.6630716 14.0448132 -61.1732862 25.6727281
1.3530478 -0.3182454 0.1133322 0.213218 -0.047240 0.013833 -0.4274589 -0.9681032 3.4674506 16.6537130 10.7341247 -63.7468425 26.3983894
1.2725071 -0.3305441 0.1029570 0.168340 0.008781 0.013321 -0.1943739 -0.6294579 3.0241536 11.9795834 7.4498826 -65.4445206 26.8192890
1.1875283 -0.3381757 0.0985210 0.128729 0.060144 0.010992 -0.0309576 -0.3784841 2.5788322 7.4441967 4.4488030 -66.5932466 27.5699894
1.7796434 -0.1275170 0.5588755 0.681271 -0.430541 -0.003259 -6.5984676 -10.4810432 1.4710066 47.9914369 33.6516393 -7.0101446 23.3465498
1.7972614 -0.1532948 0.4935460 0.645912 -0.443069 -0.008022 -6.3286474 -9.3048339 2.8464651 49.7225021 31.5615521 -14.4609938 22.6633169
1.7994139 -0.1811255 0.4274910 0.598827 -0.442603 -0.012318 -5.6317388 -7.7529741 3.8919785 50.2396954 29.2940845 -22.3079180 22.1635580
1.7861627 -0.2106905 0.3631285 0.541504 -0.427757 -0.014779 -4.6851873 -6.1091181 4.5002490 49.3823376 26.8731236 -30.2170194 21.9748586
1.7579796 -0.2411180 0.3028910 0.476928 -0.397983 -0.014451 -3.6944899 -4.6190006 4.7181515 47.1216186 24.1545670 -37.9695678 22.0546241
1.7159959 -0.2712209 0.2488879 0.409137 -0.354317 -0.011356 -2.7807819 -3.3784356 4.6416557 43.4986840 21.1875801 -45.1605793 22.3943116
1.6619144 -0.2997397 0.2026183 0.341881 -0.299096 -0.006391 -2.0341232 -2.4379873 4.4415913 38.7799284 17.9173195 -51.4932520 22.9251290
1.5977347 -0.3255411 0.1648509 0.278328 -0.235860 -0.000892 -1.4125727 -1.7007364 4.1035637 33.2997116 14.5277615 -56.7272466 23.6174450
1.5254306 -0.3477301 0.1356869 0.220231 -0.168346 0.003810 -0.9388716 -1.1637565 3.7647365 27.4530062 11.0486977 -60.7997533 24.3696511
1.4466722 -0.3656570 0.1147268 0.168494 -0.100187 0.006782 -0.5649865 -0.7507442 3.3555940 21.5633106 7.6560754 -63.7114446 25.1404360
1.3625929 -0.3788276 0.1012800 0.123175 -0.034192 0.007595 -0.2986794 -0.4652910 3.0492025 15.8483285 4.3675906 -65.6108290 25.9410553
1.2735490 -0.3867021 0.0945530 0.083967 0.027242 0.006214 -0.0971129 -0.2489924 2.6990013 10.5569215 1.3877416 -66.6776079 26.6510969
1.8581495 -0.1832358 0.5532191 0.623924 -0.497352 -0.006329 -6.3121776 -7.9602179 1.3786426 55.4618671 28.7906017 -7.7183592 21.0203333
1.8715372 -0.2136901 0.4822775 0.575848 -0.510218 -0.013411 -5.2223963 -5.9747081 2.3075143 57.3660995 26.2931511 -16.0677387 20.1288019
1.8672905 -0.2459617 0.4113459 0.515599 -0.506000 -0.019124 -3.9685959 -4.1620119 2.7075251 57.5472029 23.7409771 -24.7215566 19.8762736
1.8456631 -0.2792585 0.3434949 0.445943 -0.482815 -0.021523 -2.8255715 -2.7425021 2.6990127 55.9443982 20.9042670 -33.4331600 19.7414598
1.8077474 -0.3123081 0.2815478 0.371969 -0.441498 -0.020078 -2.0624489 -1.8685758 2.6460799 52.4204640 17.8872758 -41.6992624 20.2266959
1.7554503 -0.3436607 0.2276531 0.298230 -0.384125 -0.015510 -1.5422566 -1.3132388 2.6221677 47.3865973 14.5380675 -49.1183424 20.7768089
1.6911635 -0.3719754 0.1830450 0.229236 -0.315233 -0.009355 -1.2219412 -0.9816856 2.7699968 41.1207168 11.0682994 -55.2854452 21.7679568
1.6173291 -0.3961921 0.1480587 0.167140 -0.239300 -0.003430 -0.9121889 -0.6903179 2.8281570 34.3129935 7.4934072 -60.0609985 22.6115288
1.5360600 -0.4155642 0.1223412 0.113454 -0.161254 0.000945 -0.6495895 -0.4569659 2.9047210 27.2449313 4.0528175 -63.4395074 23.7720132
1.4488892 -0.4295703 0.1051191 0.067613 -0.084739 0.002895 -0.3878583 -0.2417857 2.7871238 20.5262829 0.7894744 -65.5700802 24.6060043
1.3566237 -0.4377478 0.0954515 0.029772 -0.012776 0.002354 -0.1785988 -0.0760742 2.7141583 14.1408969 -2.1485649 -66.6946307 25.6925619
1.9290860 -0.2480900 0.5474312 0.541032 -0.571021 -0.008920 -3.2042749 -3.0576375 0.6877576 64.0466807 23.1355801 -8.6149824 18.4200548
1.9360855 -0.2833669 0.4710969 0.478242 -0.580842 -0.017618 -1.0238375 -0.8600606 0.4468213 65.8171407 20.2430485 -17.8832241 17.7202371
1.9232539 -0.3197784 0.3959403 0.404167 -0.568084 -0.023239 0.4907928 0.3646062 -0.3331875 65.2903966 17.2288328 -27.5208083 17.5209609
1.8913264 -0.3559652 0.3256559 0.323914 -0.531901 -0.024311 0.9548997 0.6273711 -0.9168461 62.3391049 14.0211976 -36.9569808 17.8824389
1.8422574 -0.3902790 0.2632955 0.243739 -0.474510 -0.020928 0.6195456 0.3570612 -0.8097785 57.1427679 10.5363152 -45.6681968 18.6484750
1.7788413 -0.4211551 0.2108109 0.169024 -0.400825 -0.014790 0.0338384 0.0166945 -0.0596799 50.1722147 6.9135272 -52.9986934 19.7297518