# volRat = 0.650000
# viscRat = 5.000000
# alpha = 0.250000
# shRate = 5.500000
# tnum = 2500
# time = 1.446182
VARIABLES = X, Y, Z, U, V, W, F_B0, F_B1, F_B2, F_0, F_1, F_2, T
ZONE N=2562 E=5120 F=FEPOINT ET=TRIANGLE
1.5413881 -0.0033320 0.6212299 0.754363 -0.303610 -0.000000 18.2163386 46.3836615 0.0000097 47.0321676 80.4776809 0.0000049 28.5383316
-1.6326664 0.9597205 0.6212299 0.797201 0.105200 0.000000 -1.8233287 13.5663982 0.0000031 -27.1854462 68.0724232 -0.0000197 23.6209953
1.6326664 -0.9597205 0.6212299 -0.797201 -0.105200 0.000000 1.8233290 -13.5664019 0.0000031 27.1854462 -68.0724273 -0.0000163 23.6209957
-1.5413881 0.0033320 0.6212299 -0.754363 0.303610 0.000000 -18.2163338 -46.3836482 0.0000097 -47.0321627 -80.4776677 0.0000043 28.5383318
0.9692852 -0.1134377 1.0773912 0.353543 0.051446 -0.050888 0.8125352 8.6465679 16.3845677 5.9001311 27.1014196 67.1744328 30.3739227
0.9692852 -0.1134377 0.1650686 0.353543 0.051446 0.050888 0.8125728 8.6468849 -16.3851185 5.9002670 27.1017883 -67.1749506 30.3739219
-0.9692852 0.1134377 1.0773912 -0.353543 -0.051446 -0.050888 -0.8125362 -8.6465788 16.3845888 -5.9001445 -27.1014285 67.1744531 30.3739276
-0.9692852 0.1134377 0.1650686 -0.353543 -0.051446 0.050888 -0.8125715 -8.6468712 -16.3850931 -5.9002589 -27.1017801 -67.1749226 30.3739183
-0.1429224 0.4020503 0.8665293 0.433603 -0.208955 0.034942 -6.5122839 -14.8121424 -10.6931858 14.1538980 36.3586783 30.5151630 32.1387044
0.1429224 -0.4020503 0.8665293 -0.433603 0.208956 0.034942 6.5118337 14.8111285 -10.6923868 -14.1542694 -36.3596496 30.5159279 32.1387196
-0.1429224 0.4020503 0.3759305 0.433595 -0.208974 -0.034928 -6.4904562 -14.7624941 10.6573163 14.1748816 36.4071394 -30.5506775 32.1389293
0.1429224 -0.4020503 0.3759305 -0.433596 0.208974 -0.034929 6.4912695 14.7643420 10.6586548 -14.1741244 -36.4053376 -30.5493589 32.1389204
1.5652623 -0.0132721 0.6530328 0.753327 -0.310216 -0.001913 -10.4284672 -25.6666375 -1.4384460 29.1947251 31.5587857 2.6013324 28.3437115
1.5842649 -0.0243477 0.6890081 0.745612 -0.318154 -0.003589 -4.6007003 -10.9179380 -1.4154360 35.5283275 43.1588352 7.7626014 27.8159413
1.5954496 -0.0357030 0.7282714 0.733915 -0.320878 -0.004921 -3.7227491 -8.5945645 -1.8137326 36.8801202 44.0906937 12.6675192 27.6487091
1.5969899 -0.0468248 0.7695255 0.717060 -0.318470 -0.006550 -4.5416534 -10.3251333 -3.1029966 35.9831430 40.7595876 16.9576535 27.3173038
1.5880049 -0.0574027 0.8114777 0.696878 -0.307852 -0.008319 -4.0657943 -9.2342399 -3.6676390 35.5453489 40.3520946 22.1005471 27.3917567
1.5682556 -0.0671923 0.8527660 0.672549 -0.290810 -0.011379 -3.6233593 -8.3539760 -4.1752498 34.3607489 39.4797076 27.1691271 27.3213372
1.5380364 -0.0759841 0.8921199 0.645625 -0.266960 -0.015487 -3.1751800 -7.5600410 -4.5891741 32.4102388 38.4636527 32.0672158 27.6361683
1.4980591 -0.0836200 0.9284876 0.616520 -0.237031 -0.020677 -2.6378377 -6.6037872 -4.7402846 30.0159573 37.4100433 36.8717493 27.7968475
1.4493216 -0.0900197 0.9611196 0.586252 -0.202283 -0.026397 -2.1808486 -5.8494887 -4.8644706 27.0795833 36.1817259 41.1860139 28.2750421
1.3929765 -0.0952013 0.9895899 0.554873 -0.164560 -0.032793 -1.6520604 -4.8427518 -4.5943559 24.0478580 35.0705814 45.3649621 28.5230906
1.3302305 -0.0992866 1.0137630 0.523156 -0.125100 -0.038762 -1.2516604 -4.0980916 -4.3870188 20.7608332 33.7464754 49.0154440 29.0772953
1.2622950 -0.1024939 1.0337323 0.490888 -0.084904 -0.043446 -1.0003901 -3.7521954 -4.5011732 17.4363764 31.9140262 51.8773809 29.3064053
1.1904234 -0.1051237 1.0497457 0.457873 -0.046443 -0.047774 -0.6001307 -2.6631842 -3.5696436 14.3160547 30.8083666 55.5305360 29.8229677
1.1160242 -0.1075426 1.0621457 0.423899 -0.009206 -0.049381 -0.5528347 -3.0413727 -4.5597707 11.1105117 28.1171201 57.1483131 29.9731949
1.0413109 -0.1101765 1.0712592 0.389104 0.024904 -0.048614 -0.6574323 -4.8484705 -8.1881070 7.9461617 24.3860086 56.3894674 30.3935729
1.7439440 -0.9307988 0.7040412 -0.745965 -0.232431 -0.009903 -1.2300755 3.9549990 -0.7030356 43.3983200 -62.1171732 12.9897642 21.3163654
1.7595160 -0.9022939 0.7873558 -0.695059 -0.264066 -0.017911 -0.8634182 2.3215028 -0.9050943 46.3268530 -57.7633838 25.9806322 20.7602048
1.7616072 -0.8600807 0.8678122 -0.619836 -0.285014 -0.022642 -0.2492203 0.5680542 -0.3713224 47.3591307 -51.0192847 38.2175687 20.3182614
1.7499759 -0.8054726 0.9413896 -0.522893 -0.292457 -0.022580 0.2142588 -0.4116844 0.4147091 46.3053136 -42.6926130 48.5157256 20.2352171
1.7249718 -0.7409844 1.0046857 -0.410605 -0.284737 -0.018122 0.3257612 -0.5128214 0.7865903 43.5856395 -33.3851021 56.3027557 20.4420212
1.6877579 -0.6698043 1.0554611 -0.289926 -0.262214 -0.011555 0.1730924 -0.2083542 0.5109474 39.6548311 -24.0436034 61.5399992 21.0212697
1.6400134 -0.5952083 1.0928603 -0.168357 -0.228016 -0.005718 -0.1049914 0.0815509 -0.3745886 35.0994610 -15.1874368 64.5701010 21.8842142
1.5835626 -0.5201164 1.1172711 -0.052224 -0.186760 -0.002867 -0.3423526 0.0890824 -1.4644672 30.4452256 -7.1348322 65.8679685 22.9546717
1.5200824 -0.4468729 1.1299863 0.053974 -0.143512 -0.004136 -0.4843996 -0.1825017 -2.4653063 26.0002381 0.0573477 65.9937928 24.1403826
1.4509509 -0.3772136 1.1328489 0.147167 -0.102382 -0.009282 -0.5163929 -0.5981338 -3.0996431 21.9800541 6.3511831 65.3719855 25.3846596
1.3772044 -0.3123310 1.1279482 0.225730 -0.066078 -0.017220 -0.4960812 -1.0400550 -3.4770647 18.4301128 11.8529425 64.3235899 26.5825875
1.2995516 -0.2529666 1.1174156 0.288911 -0.035806 -0.026434 -0.4410755 -1.4064269 -3.5726821 15.4075226 16.5773455 63.0657595 27.6934820
1.2183579 -0.1994901 1.1032644 0.337223 -0.011474 -0.035581 -0.3862022 -1.7067161 -3.5842446 12.6936485 20.5736693 61.7926826 28.7561361
1.1333671 -0.1519944 1.0873509 0.370677 0.007924 -0.043408 -0.3658948 -2.1157158 -3.8803856 10.4447461 23.7419046 60.3104142 29.6063794
1.8287615 -0.8962245 0.7096470 -0.686183 -0.347317 -0.010422 0.7882352 -1.5658357 0.3373320 57.7176111 -57.7422434 14.3193067 19.1007180
1.8421487 -0.8590889 0.7971451 -0.618497 -0.381032 -0.018411 2.2187226 -3.6845088 1.7723176 60.4037860 -51.5405979 28.4119563 18.3123219
1.8385549 -0.8086415 0.8792096 -0.525895 -0.397042 -0.021076 3.0077521 -4.1622902 3.4666278 60.0251924 -43.4260847 40.6936020 18.1965263
1.8187947 -0.7470578 0.9516992 -0.414568 -0.393954 -0.018316 2.9356911 -3.2844118 4.4490412 57.1019802 -33.9539897 50.4077916 18.2719132
1.7843773 -0.6775753 1.0115731 -0.291954 -0.371515 -0.011950 2.0766341 -1.7422287 3.9605817 52.1640582 -24.2730003 57.2010666 19.0455975
1.7374706 -0.6037123 1.0573307 -0.167005 -0.333179 -0.004932 0.9989045 -0.5196083 2.3407056 46.3002852 -15.0331519 61.2854015 19.9327212
1.6804625 -0.5286481 1.0889757 -0.046388 -0.284352 -0.000464 0.0462922 -0.0064180 0.1312410 40.0928759 -6.6246918 63.2595435 21.3331269
1.6155456 -0.4549133 1.1076572 0.064403 -0.231430 -0.000180 -0.5102817 -0.1673883 -1.7292311 34.2380509 0.8467007 63.7428033 22.6222796
1.5444677 -0.3843444 1.1152152 0.162424 -0.179742 -0.004430 -0.7705966 -0.6920806 -3.0861587 28.8992014 7.3821189 63.2955316 24.2066630
1.4684457 -0.3181771 1.1138209 0.245530 -0.133047 -0.012134 -0.7943926 -1.2571939 -3.7174460 24.3217275 13.0922350 62.2823177 25.4611563
1.3881404 -0.2571683 1.1057161 0.313515 -0.093038 -0.021950 -0.7433538 -1.7718950 -4.0214185 20.2624972 18.0130035 61.0239459 26.9657353
1.3035783 -0.2016894 1.0930649 0.365662 -0.059930 -0.032169 -0.6405311 -2.1122098 -3.9738764 16.9248697 22.2100850 59.6475279 27.9741711
1.2138237 -0.1518266 1.0778856 0.402796 -0.032702 -0.041696 -0.5679826 -2.4557990 -4.0331822 13.8551522 25.6177372 58.2647892 29.2342240
1.9070732 -0.8466332 0.7134130 -0.596429 -0.468170 -0.009951 6.9702726 -8.9513026 2.3976037 72.3022974 -49.9957838 15.2881615 16.5768022
1.9150513 -0.8011917 0.8030884 -0.510649 -0.497244 -0.015363 8.9656342 -9.4143295 5.8512409 73.6127655 -42.4494529 29.5184489 16.0803936
1.9033691 -0.7435842 0.8849133 -0.402492 -0.502213 -0.015051 8.8007328 -7.3228547 8.3918826 71.0883023 -33.2561060 41.4510088 16.1404904
1.8738255 -0.6769286 0.9547058 -0.280537 -0.482506 -0.009484 6.7354015 -4.0850553 8.5244079 65.6446186 -23.6536697 50.1960317 16.8509722
1.8291085 -0.6048996 1.0100122 -0.154134 -0.441935 -0.002135 3.8949833 -1.3759178 6.2435490 58.4806863 -14.2509317 55.9015370 18.0111352
1.7722929 -0.5309177 1.0502195 -0.031292 -0.386533 0.003583 1.4378575 -0.0764276 2.8412417 50.7508103 -5.7183703 59.0280474 19.5402917
1.7062433 -0.4576988 1.0761792 0.082182 -0.324246 0.005173 -0.1723513 -0.0537935 -0.4121198 43.2419464 1.9284653 60.2511317 21.2000219
1.6332377 -0.3871760 1.0896659 0.182807 -0.261728 0.001872 -0.9404984 -0.7132604 -2.6807875 36.4800464 8.5684056 60.2366128 22.9058365
1.5548219 -0.3206236 1.0929023 0.268930 -0.204082 -0.005653 -1.1767005 -1.5258131 -3.9445721 30.5401682 14.4033231 59.5050596 24.5719810
1.4717916 -0.2588220 1.0882521 0.339516 -0.153722 -0.015858 -1.1247876 -2.1730549 -4.3813691 25.5506380 19.4443449 58.3744227 26.0942643
1.3841640 -0.2021935 1.0780389 0.394691 -0.111427 -0.027104 -0.9809347 -2.6138172 -4.3999344 21.2265706 23.8417365 57.1197971 27.5037079
1.2910448 -0.1509180 1.0644821 0.434220 -0.076159 -0.038075 -0.7964038 -2.7840619 -4.0996806 17.5561315 27.5608093 56.0144991 28.7490457
1.9741461 -0.7813237 0.7154311 -0.471131 -0.583536 -0.007297 17.6683220 -14.4101966 5.1335192 84.7471335 -39.1955012 15.4529196 14.1427911
1.9736740 -0.7288818 0.8050897 -0.369280 -0.600391 -0.009123 18.5154632 -11.6254493 10.3499130 83.6847929 -30.8500458 29.2642594 13.8796640
1.9518287 -0.6664068 0.8845845 -0.250939 -0.587284 -0.005022 15.1641803 -6.6391473 12.5142820 78.5631017 -21.7827464 40.2000956 14.6215840
1.9115254 -0.5975758 0.9501014 -0.126106 -0.547472 0.002121 9.7311423 -2.2172330 10.7389316 70.7445121 -12.7085625 47.9694610 15.7972643
1.8564710 -0.5259780 1.0000090 -0.003891 -0.487809 0.008651 4.5047356 0.0827403 6.3261744 61.7129233 -4.3249637 52.7347132 17.6415160
1.7903043 -0.4544991 1.0345763 0.109408 -0.417610 0.011406 0.9724637 0.3079147 1.6867986 52.7033412 3.2593120 55.1518367 19.4503053
1.7159896 -0.3851704 1.0553336 0.210280 -0.345160 0.008951 -0.8998449 -0.6130365 -1.8875204 44.3960550 9.8921985 56.0066947 21.5684294
1.6355784 -0.3193068 1.0644771 0.296699 -0.276826 0.001814 -1.5526717 -1.7442172 -3.8718756 37.1918769 15.7205478 55.7988433 23.3211916
1.5501884 -0.2577185 1.0644527 0.368239 -0.216264 -0.008704 -1.6274645 -2.6842665 -4.7555473 30.9895957 20.8164218 55.0456338 25.2318466
1.4600550 -0.2008824 1.0577354 0.424422 -0.164573 -0.020761 -1.4177848 -3.2062960 -4.8005096 25.8050147 25.2354054 54.0160211 26.6820051
1.3645589 -0.1490726 1.0467233 0.465411 -0.121328 -0.032768 -1.2022649 -3.5595316 -4.6886914 21.3238756 28.9634548 52.8930703 28.2471667
2.0244738 -0.7017825 0.7153718 -0.311126 -0.677960 -0.003070 29.6347696 -13.7859649 7.5511734 92.6419371 -26.5420454 14.8625559 12.2054660
2.0132930 -0.6448999 0.8027459 -0.199789 -0.675492 -0.000338 26.3978293 -7.9400731 13.0903272 88.9273048 -18.4861781 27.5949433 12.6250972
1.9802981 -0.5808007 0.8780135 -0.080114 -0.640798 0.006303 18.3649816 -2.2342789 13.5587916 81.4835565 -10.2321477 37.4582911 13.9054006
1.9294343 -0.5130831 0.9381214 0.038043 -0.580915 0.013476 9.6604264 0.8344131 9.5923373 71.9746129 -2.3214463 44.2002333 15.7922232
1.8650015 -0.4447364 0.9823296 0.148173 -0.506056 0.017235 3.1732866 1.0699912 4.0222069 61.8299558 4.9937017 48.3045963 17.9641327
1.7907222 -0.3778787 1.0116177 0.246089 -0.425823 0.015924 -0.4390062 -0.2826555 -0.6877121 52.2922090 11.4242672 50.3394492 20.1960052
1.7092963 -0.3138726 1.0279633 0.330498 -0.348497 0.009364 -1.9230352 -1.9562620 -3.6374832 43.7479306 17.1729993 51.0171656 22.3402290
1.6223341 -0.2535617 1.0338000 0.400416 -0.278496 -0.001118 -2.1960989 -3.2167274 -4.9247047 36.5151756 22.1814505 50.8863782 24.3364336
1.5304490 -0.1974752 1.0316966 0.455995 -0.218244 -0.013688 -1.9736497 -3.9266670 -5.1726088 30.3553543 26.6410188 50.3065990 26.1170093
1.4333916 -0.1459617 1.0242002 0.496874 -0.167504 -0.026652 -1.5998836 -4.1476312 -4.8552559 25.2044894 30.5001904 49.5915245 27.7003190
2.0533052 -0.6121839 0.7130187 -0.126843 -0.736466 0.002044 36.1302737 -6.3889832 8.3151634 94.9603813 -14.0187391 13.6634024 11.2688087
2.0306020 -0.5542681 0.7960284 -0.015814 -0.711491 0.008427 27.5182319 -0.5962444 12.4400490 89.0406228 -6.9074298 25.1063069 12.2723090
1.9869605 -0.4919475 0.8656758 0.094965 -0.656747 0.016108 15.9194119 2.5064546 10.7847758 80.0973825 0.2519315 33.7893140 14.2438723
1.9269110 -0.4281708 0.9198308 0.198473 -0.581914 0.021191 6.3405784 2.3629265 5.7998824 69.7780170 6.9920530 39.7220360 16.4159597
1.8547862 -0.3650929 0.9585085 0.290740 -0.498218 0.021334 0.4319436 0.2746528 0.5050928 59.4500711 13.1285034 43.2778256 18.9486230
1.7739796 -0.3041194 0.9831628 0.370261 -0.414656 0.015882 -2.1515753 -2.0601134 -3.1070399 50.0148764 18.6203066 45.1464731 21.1756847
1.6867124 -0.2461370 0.9960173 0.436496 -0.337569 0.006015 -2.8523429 -3.8371460 -4.9619717 41.8182643 23.5191186 45.8800863 23.4775573
1.5941068 -0.1917268 0.9996282 0.489429 -0.269963 -0.006574 -2.6203814 -4.7250377 -5.3893200 34.8700123 27.8941615 45.9290009 25.2986572
1.4963603 -0.1413063 0.9966284 0.528923 -0.212587 -0.019983 -2.1593459 -5.0358405 -5.1817754 29.0095902 31.7314338 45.6638808 27.1824971
2.0583429 -0.5186422 0.7084947 0.063705 -0.751220 0.006405 32.3789754 2.6393501 6.8902058 92.2420661 -2.8152792 12.2192134 11.6266719
2.0249446 -0.4629857 0.7855521 0.164357 -0.706736 0.014877 20.6344557 4.8893061 8.6871976 84.9450169 3.3177018 22.2689632 13.2665798
1.9723849 -0.4050689 0.8487988 0.258791 -0.638214 0.021560 9.1774018 3.8894453 5.8166113 75.3845665 9.3757431 29.8315214 15.4978110
1.9051785 -0.3469722 0.8969405 0.342971 -0.556266 0.023715 1.4267588 0.9312483 1.2234835 65.1459018 15.0228840 34.9780477 17.9644112
1.8272514 -0.2901113 0.9305246 0.415652 -0.471172 0.020123 -2.3681149 -2.2106196 -2.5953084 55.3017687 20.2199130 38.2176361 20.4129520
1.7414572 -0.2354151 0.9512755 0.476155 -0.390078 0.011628 -3.5049705 -4.4651085 -4.7337701 46.5773677 24.9113162 40.0298317 22.7212951
1.6495133 -0.1835249 0.9615451 0.524997 -0.317579 -0.000264 -3.3556557 -5.6325851 -5.4433915 38.9668914 29.1765539 40.9094827 24.8177797
1.5521458 -0.1349282 0.9639459 0.561623 -0.255050 -0.013468 -2.7714721 -5.9541918 -5.3017963 32.5799714 32.9379541 41.1985815 26.6671852
2.0404729 -0.4273626 0.7022787 0.241153 -0.725605 0.009113 20.7979290 6.8678872 4.1680680 85.9400331 6.8593044 10.7196367 13.1274308
1.9983305 -0.3762426 0.7724274 0.325024 -0.668753 0.017459 10.1470740 5.0000632 4.0436224 78.0535949 12.0227929 19.4338805 14.9611881
1.9390533 -0.3240802 0.8290091 0.399887 -0.594738 0.022048 1.8329690 1.2702576 1.1024139 68.7332421 17.0873174 25.9706167 17.3832966
1.8666968 -0.2722175 0.8713616 0.464231 -0.513163 0.021060 -2.6271048 -2.4696477 -2.1380561 59.2755309 21.8482526 30.5427383 19.6874260
1.7845865 -0.2216014 0.9003677 0.518059 -0.432604 0.014801 -4.2139334 -5.2316653 -4.3745827 50.4014702 26.2965015 33.4790170 22.1551150
1.6950380 -0.1729339 0.9179110 0.561429 -0.358178 0.004409 -4.1081186 -6.5817855 -5.2390091 42.5633682 30.3665475 35.2804825 24.1749040
1.5993657 -0.1267826 0.9264112 0.594326 -0.292869 -0.007915 -3.4378747 -6.9558646 -5.2487416 35.7905232 34.0932547 36.2780624 26.2406474
2.0030024 -0.3428893 0.6950275 0.392204 -0.671610 0.009540 8.0138825 4.6725226 1.5333566 77.4739162 15.0601599 9.2797781 15.3558217
1.9543348 -0.2972763 0.7578851 0.457410 -0.610405 0.016464 1.0101017 0.7652394 0.3854342 69.8376454 19.3695218 16.7433928 17.3582310
1.8902955 -0.2510526 0.8078821 0.513550 -0.538027 0.018427 -3.2833054 -3.2016759 -1.8917430 61.3266365 23.6839412 22.4341686 19.5920945
1.8143095 -0.2051099 0.8447910 0.560149 -0.462273 0.015006 -4.9322508 -6.1308683 -3.8387838 52.9744196 27.7383829 26.4656538 21.8342563
1.7291419 -0.1601947 0.8697248 0.597857 -0.389754 0.006985 -4.8579457 -7.6081078 -4.8069187 45.2033223 31.6338903 29.2120971 23.9669007
1.6366954 -0.1169638 0.8846823 0.626295 -0.324088 -0.003760 -4.0786729 -7.9371046 -4.9387918 38.3870766 35.2092100 30.9683038 25.9267603
1.9501542 -0.2674786 0.6873652 0.511788 -0.603258 0.008333 -1.0454380 -0.8877765 -0.1927462 68.4046155 21.9171607 7.9528724 17.9032858
1.8968019 -0.2273058 0.7429722 0.559912 -0.543859 0.012846 -4.2723769 -4.4389042 -1.5721829 61.5181661 25.5700094 14.4233324 19.6624988
1.8293304 -0.1864625 0.7866574 0.600001 -0.477496 0.012509 -5.6622571 -7.2260621 -3.1414347 54.0993271 29.2522684 19.3381873 21.8213207
1.7506123 -0.1456718 0.8185069 0.632061 -0.410293 0.007307 -5.5081366 -8.6249409 -4.1139592 46.9029420 32.8290884 22.9376328 23.7211098
1.6630305 -0.1056847 0.8398374 0.656365 -0.347220 -0.001146 -4.6631885 -8.9050946 -4.4085768 40.2599523 36.2967668 25.4332082 25.7416852
1.8858644 -0.2015172 0.6797687 0.601423 -0.532037 0.006079 -5.4636320 -6.1957929 -0.9754766 59.7409873 27.7483365 6.8027247 20.4376051
1.8290176 -0.1661250 0.7284261 0.635507 -0.478021 0.008222 -6.2781653 -8.4184647 -2.2346909 53.7531632 30.9203296 12.3534992 22.1671310
1.7587545 -0.1297615 0.7661525 0.662936 -0.419599 0.005847 -6.0218460 -9.6283102 -3.2203770 47.3571539 34.1776880 16.6555303 23.9616953
1.6776607 -0.0932309 0.7933112 0.683272 -0.361649 -0.000195 -5.1736824 -9.8811719 -3.7062111 41.2161340 37.2440924 19.8025601 25.7451966
1.8132795 -0.1443079 0.6725495 0.665566 -0.464960 0.003503 -6.6152018 -9.5221343 -1.1453419 52.0063502 32.7369716 5.8515460 22.7833838
1.7534296 -0.1127680 0.7146672 0.688680 -0.417463 0.003410 -6.1360992 -10.2137568 -2.1100924 46.9937467 35.7261758 10.7071822 24.1777536
1.6804015 -0.0799037 0.7467410 0.706081 -0.367085 -0.000217 -5.3352644 -10.3708741 -2.7408055 41.4816638 38.5316559 14.3837768 25.9188153
1.7347522 -0.0947204 0.6658724 0.709452 -0.405401 0.001212 -6.4405430 -11.3635927 -1.0762725 44.9198260 36.6019817 4.9268321 24.9154241
1.6716341 -0.0659673 0.7017409 0.724222 -0.364001 -0.000605 -4.8816309 -9.8115752 -1.6114379 41.3752889 40.6945176 9.3063463 26.2692112
1.6520241 -0.0515258 0.6596669 0.737493 -0.353594 -0.000778 -7.2350709 -15.2551702 -1.1588321 37.4748825 36.4556371 3.9779285 26.7296036
1.6207967 -0.0358322 0.6212299 0.746374 -0.336658 -0.000000 -1.1801931 -2.6571162 0.0000000 41.4754895 50.9345974 -0.0000010 27.4083597
1.7020775 -0.0749832 0.6212299 0.724769 -0.384320 0.000000 -4.3578246 -8.2987803 0.0000001 43.8402080 40.6730370 -0.0000014 25.5314494
1.7820682 -0.1207626 0.6212299 0.689818 -0.439980 -0.000000 -6.5844082 -10.3867632 0.0000001 49.1748469 34.8209032 0.0000018 23.7344431
1.8578058 -0.1738925 0.6212299 0.636455 -0.504488 -0.000000 -6.2846843 -7.9501489 0.0000000 56.4873162 30.1044767 -0.0000016 21.3363496
1.9268913 -0.2354128 0.6212299 0.560054 -0.575517 -0.000000 -3.5417137 -3.4443589 -0.0000000 64.8858875 24.6940712 0.0000017 18.9643315
1.9864156 -0.3062779 0.6212299 0.455357 -0.647946 -0.000000 3.6995090 2.5885559 0.0000000 74.0835889 18.3589613 -0.0000008 16.2416945
2.0327017 -0.3867477 0.6212299 0.318918 -0.712411 -0.000000 15.7896806 6.9988279 0.0000002 83.2490001 10.8220359 0.0000021 13.8686465
2.0614374 -0.4755857 0.6212299 0.151904 -0.755237 -0.000000 29.8284059 5.8484951 0.0000004 91.0371528 1.7824743 -0.0000012 11.7869976
2.0685305 -0.5693344 0.6212299 -0.036338 -0.762394 -0.000000 38.7706211 -2.0544472 0.0000005 95.9204909 -8.7042235 0.0000028 10.8996272
2.0516226 -0.6623341 0.6212299 -0.228407 -0.725264 -0.000000 37.0395272 -11.8630035 0.0000005 96.4176910 -20.7166277 -0.0000013 11.1174151
2.0114362 -0.7480137 0.6212299 -0.404025 -0.646237 -0.000000 25.9988160 -16.3874300 0.0000003 91.3686633 -33.6745742 0.0000015 12.7486748
1.9518401 -0.8209392 0.6212299 -0.547964 -0.537924 -0.000000 13.0339470 -13.3332364 0.0000002 80.8602029 -45.8254890 -0.0000022 14.9835994
1.8785022 -0.8782174 0.6212299 -0.655057 -0.417345 -0.000000 3.8041779 -5.9778184 0.0000000 66.9103912 -55.2018705 0.0000007 17.6342275
1.7972574 -0.9195543 0.6212299 -0.727590 -0.298441 0.000000 -0.5772296 1.4038627 -0.0000000 52.0122889 -60.9674689 -0.0000083 19.9319235
1.7137230 -0.9462679 0.6212299 -0.773676 -0.188373 -0.000000 -1.6354069 6.6721071 0.0000000 38.6777334 -65.7814164 -0.0000034 22.1857301
1.6548805 -0.9528042 0.5480162 -0.782781 -0.129119 0.007483 -1.6195440 9.7323393 1.3430828 30.2609132 -64.0988050 -10.3612087 23.3514661
1.6703445 -0.9323720 0.4701579 -0.746960 -0.154856 0.014619 -1.3530917 6.6248328 2.1050657 33.0578180 -61.1067845 -22.6051369 22.7020833
1.6763126 -0.8983608 0.3921023 -0.687511 -0.175641 0.020066 -1.1366018 4.6612289 2.4664937 34.5139209 -56.1405443 -34.2918728 22.4155459
1.6711136 -0.8514946 0.3184196 -0.606675 -0.188585 0.021798 -0.8335086 2.8991527 2.3062280 34.8790674 -49.2034326 -44.8083456 22.0026993
1.6541836 -0.7935156 0.2527015 -0.507229 -0.190718 0.019602 -0.5543495 1.6321381 1.8865586 33.7948841 -40.9855545 -53.4293683 22.0637087
1.6258303 -0.7270295 0.1976464 -0.395803 -0.180863 0.014420 -0.3717234 0.9050781 1.5335009 31.6468095 -32.1150004 -59.7647776 22.1628791
1.5870006 -0.6550529 0.1547897 -0.278469 -0.159884 0.008624 -0.3024558 0.5725128 1.5046967 28.7049278 -23.3259728 -63.9946308 22.7656862
1.5389968 -0.5805867 0.1244855 -0.162070 -0.130616 0.004450 -0.2941027 0.3710661 1.7616372 25.4084110 -15.0090390 -66.3445292 23.3550725
1.4832098 -0.5062905 0.1060802 -0.051647 -0.096976 0.003595 -0.3121237 0.1508189 2.2480203 21.9628527 -7.4066194 -67.3268180 24.4083435
1.4209358 -0.4343182 0.0981908 0.048258 -0.062892 0.006443 -0.3048963 -0.1520618 2.6325716 18.7527180 -0.6083210 -67.3324427 25.2551933
1.3532882 -0.3662843 0.0990018 0.135313 -0.031446 0.012511 -0.2913122 -0.5040288 2.9980740 15.7557043 5.3899549 -66.7259805 26.4481873
1.2811971 -0.3033082 0.1065023 0.207736 -0.004557 0.020552 -0.2566981 -0.8304715 3.1217104 13.1361046 10.5958412 -65.7724182 27.3170246
1.2054935 -0.2461087 0.1186741 0.265332 0.017084 0.029259 -0.2379622 -1.1904152 3.3799817 10.7993134 15.0540959 -64.6262113 28.4407182
1.1270527 -0.1951039 0.1336177 0.308030 0.033609 0.037325 -0.1727824 -1.2037112 2.8266730 8.9314268 18.7564698 -63.6689643 29.0756410
1.0476051 -0.1507699 0.1494723 0.337620 0.045144 0.044481 -0.2185335 -2.0068657 4.1117559 7.1094965 22.3615786 -63.7184010 30.0817621
1.6520241 -0.0515258 0.5827929 0.737493 -0.353594 0.000778 -7.2350673 -15.2551625 1.1588319 37.4748768 36.4556469 -3.9779308 26.7296015
1.6716341 -0.0659673 0.5407189 0.724222 -0.364001 0.000605 -4.8816534 -9.8116204 1.6114456 41.3752730 40.6944731 -9.3063348 26.2692140
1.6804015 -0.0799037 0.4957188 0.706081 -0.367085 0.000217 -5.3352367 -10.3708201 2.7407914 41.4816845 38.5317087 -14.3837970 25.9188117
1.6776607 -0.0932310 0.4491486 0.683272 -0.361649 0.000195 -5.1737021 -9.8812093 3.7062254 41.2161237 37.2440559 -19.8025372 25.7452014
1.6630305 -0.1056847 0.4026224 0.656365 -0.347220 0.001146 -4.6631803 -8.9050787 4.4085692 40.2599572 36.2967796 -25.4332246 25.7416797
1.6366954 -0.1169638 0.3577775 0.626295 -0.324088 0.003760 -4.0786706 -7.9370999 4.9387891 38.3870887 35.2092168 -30.9682960 25.9267687
1.5993657 -0.1267826 0.3160486 0.594326 -0.292869 0.007915 -3.4378825 -6.9558802 5.2487535 35.7905143 34.0932319 -36.2780639 26.2406398
1.5521458 -0.1349282 0.2785139 0.561623 -0.255050 0.013468 -2.7714622 -5.9541703 5.3017772 32.5799961 32.9379815 -41.1985852 26.6671964
1.4963603 -0.1413063 0.2458314 0.528923 -0.212587 0.019983 -2.1593519 -5.0358545 5.1817899 29.0095809 31.7314030 -45.6638885 27.1824907
1.4333917 -0.1459617 0.2182595 0.496874 -0.167504 0.026652 -1.5998861 -4.1476376 4.8552635 25.2045047 30.5001978 -49.5915000 27.7003321
1.3645590 -0.1490726 0.1957364 0.465411 -0.121328 0.032768 -1.2022528 -3.5594957 4.6886442 21.3238867 28.9634591 -52.8931427 28.2471614
1.2910448 -0.1509180 0.1779777 0.434220 -0.076159 0.038075 -0.7964181 -2.7841120 4.0997543 17.5561260 27.5607746 -56.0144177 28.7490630
1.2138237 -0.1518266 0.1645742 0.402796 -0.032702 0.041696 -0.5679783 -2.4557803 4.0331515 13.8551568 25.6177155 -58.2648448 29.2342216
1.1333671 -0.1519944 0.1551089 0.370677 0.007924 0.043408 -0.3658861 -2.1156653 3.8802929 10.4447452 23.7419471 -60.3105099 29.6063921
1.7347522 -0.0947204 0.5765874 0.709452 -0.405401 -0.001212 -6.4405438 -11.3635940 1.0762729 44.9198314 36.6019775 -4.9268342 24.9154258
1.7534296 -0.1127680 0.5277926 0.688680 -0.417463 -0.003410 -6.1360998 -10.2137577 2.1100927 46.9937425 35.7261757 -10.7071855 24.1777511
1.7587545 -0.1297615 0.4763073 0.662936 -0.419599 -0.005847 -6.0218436 -9.6283062 3.2203758 47.3571600 34.1776903 -16.6555310 23.9616981
1.7506123 -0.1456718 0.4239529 0.632061 -0.410293 -0.007307 -5.5081388 -8.6249441 4.1139609 46.9029332 32.8290849 -22.9376380 23.7211053
1.7291419 -0.1601947 0.3727350 0.597857 -0.389754 -0.006985 -4.8579431 -7.6081036 4.8069162 45.2033274 31.6338951 -29.2120952 23.9669040
1.6950380 -0.1729340 0.3245488 0.561429 -0.358178 -0.004409 -4.1081210 -6.5817893 5.2390123 42.5633569 30.3665416 -35.2804873 24.1748969
1.6495133 -0.1835249 0.2809147 0.524997 -0.317579 0.000264 -3.3556539 -5.6325819 5.4433886 38.9668937 29.1765622 -40.9094780 24.8177843
1.5941069 -0.1917268 0.2428316 0.489429 -0.269963 0.006574 -2.6203828 -4.7250400 5.3893227 34.8699987 27.8941558 -45.9290060 25.2986463
1.5304490 -0.1974752 0.2107632 0.455995 -0.218244 0.013688 -1.9736503 -3.9266681 5.1726104 30.3553566 26.6410306 -50.3065842 26.1170129
1.4600550 -0.2008824 0.1847244 0.424422 -0.164573 0.020761 -1.4177824 -3.2062904 4.8005013 25.8050008 25.2354063 -54.0160361 26.6819930
1.3841640 -0.2021935 0.1644209 0.394691 -0.111427 0.027104 -0.9809384 -2.6138269 4.3999508 21.2265731 23.8417531 -57.1197618 27.5037081
1.3035783 -0.2016894 0.1493949 0.365662 -0.059930 0.032169 -0.6405288 -2.1122022 3.9738622 16.9248644 22.2100898 -59.6475433 27.9741555
1.2183579 -0.1994901 0.1391954 0.337223 -0.011474 0.035581 -0.3862017 -1.7067136 3.5842394 12.6936573 20.5737179 -61.7926637 28.7561371
1.8132795 -0.1443079 0.5699103 0.665566 -0.464960 -0.003503 -6.6152011 -9.5221332 1.1453419 52.0063468 32.7369746 -5.8515472 22.7833826
1.8290176 -0.1661250 0.5140336 0.635507 -0.478021 -0.008222 -6.2781657 -8.4184653 2.2346911 53.7531663 30.9203282 -12.3534954 22.1671328
1.8293304 -0.1864625 0.4558024 0.600001 -0.477496 -0.012509 -5.6622563 -7.2260610 3.1414342 54.0993267 29.2522700 -19.3381877 21.8213186
1.8143095 -0.2051099 0.3976688 0.560149 -0.462273 -0.015006 -4.9322505 -6.1308679 3.8387836 52.9744263 27.7383828 -26.4656489 21.8342601
1.7845865 -0.2216014 0.3420921 0.518059 -0.432604 -0.014801 -4.2139342 -5.2316661 4.3745835 50.4014694 26.2964988 -33.4790190 22.1551128
1.7414572 -0.2354152 0.2911843 0.476155 -0.390078 -0.011628 -3.5049705 -4.4651084 4.7337701 46.5773779 24.9113165 -40.0298254 22.7213007
1.6867124 -0.2461370 0.2464425 0.436496 -0.337569 -0.006015 -2.8523431 -3.8371462 4.9619720 41.8182658 23.5191111 -45.8800918 23.4775551
1.6223341 -0.2535617 0.2086598 0.400416 -0.278496 0.001118 -2.1960994 -3.2167280 4.9247056 36.5151882 22.1814502 -50.8863731 24.3364437
1.5501884 -0.2577185 0.1780071 0.368238 -0.216264 0.008704 -1.6274641 -2.6842658 4.7555461 30.9895962 20.8164081 -55.0456446 25.2318445
1.4717917 -0.2588220 0.1542077 0.339516 -0.153722 0.015858 -1.1247883 -2.1730560 4.3813714 25.5506535 19.4443408 -58.3744199 26.0942777
1.3881404 -0.2571683 0.1367437 0.313515 -0.093038 0.021950 -0.7433533 -1.7718937 4.0214156 20.2624881 18.0129792 -61.0239628 26.9657376
1.2995517 -0.2529666 0.1250442 0.288911 -0.035806 0.026434 -0.4410756 -1.4064272 3.5726830 15.4075352 16.5773334 -63.0657633 27.6934963
1.8858644 -0.2015172 0.5626911 0.601423 -0.532037 -0.006079 -5.4636321 -6.1957930 0.9754766 59.7409901 27.7483345 -6.8027242 20.4376057
1.8968019 -0.2273058 0.4994876 0.559912 -0.543859 -0.012846 -4.2723767 -4.4389040 1.5721828 61.5181636 25.5700099 -14.4233358 19.6624972
1.8902955 -0.2510526 0.4345777 0.513550 -0.538027 -0.018427 -3.2833053 -3.2016757 1.8917429 61.3266375 23.6839400 -22.4341685 19.5920954
1.8666968 -0.2722176 0.3710982 0.464231 -0.513163 -0.021060 -2.6271049 -2.4696477 2.1380561 59.2755262 21.8482531 -30.5427411 19.6874221
1.8272514 -0.2901113 0.3119352 0.415652 -0.471172 -0.020123 -2.3681147 -2.2106193 2.5953081 55.3017687 20.2199136 -38.2176351 20.4129528
1.7739796 -0.3041194 0.2592970 0.370261 -0.414656 -0.015882 -2.1515756 -2.0601137 3.1070403 50.0148667 18.6203081 -45.1464759 21.1756791
1.7092963 -0.3138726 0.2144965 0.330498 -0.348497 -0.009364 -1.9230349 -1.9562616 3.6374826 43.7479306 17.1730054 -51.0171615 22.3402277
1.6355784 -0.3193068 0.1779827 0.296699 -0.276826 -0.001814 -1.5526717 -1.7442171 3.8718754 37.1918662 15.7205520 -55.7988440 23.3211828
1.5548219 -0.3206236 0.1495575 0.268930 -0.204082 0.005653 -1.1767007 -1.5258134 3.9445727 30.5401686 14.4033371 -59.5050517 24.5719792
1.4684457 -0.3181771 0.1286389 0.245530 -0.133047 0.012134 -0.7943925 -1.2571937 3.7174456 24.3217194 13.0922461 -62.2823146 25.4611424
1.3772044 -0.3123310 0.1145116 0.225729 -0.066078 0.017220 -0.4960813 -1.0400552 3.4770655 18.4301205 11.8529693 -64.3235791 26.5825827
1.9501542 -0.2674786 0.5550946 0.511788 -0.603258 -0.008333 -1.0454400 -0.8877781 0.1927466 68.4046121 21.9171605 -7.9528709 17.9032855
1.9543348 -0.2972763 0.4845747 0.457410 -0.610405 -0.016464 1.0101016 0.7652393 -0.3854342 69.8376483 19.3695211 -16.7433880 17.3582322
1.9390533 -0.3240803 0.4134507 0.399887 -0.594738 -0.022048 1.8329702 1.2702585 -1.1024146 68.7332443 17.0873182 -25.9706159 17.3832965
1.9051785 -0.3469722 0.3455193 0.342971 -0.556266 -0.023715 1.4267597 0.9312489 -1.2234842 65.1459084 15.0228838 -34.9780447 17.9644146
1.8547863 -0.3650929 0.2839513 0.290740 -0.498218 -0.021334 0.4319437 0.2746529 -0.5050930 59.4500752 13.1285008 -43.2778247 18.9486227
1.7907222 -0.3778787 0.2308421 0.246089 -0.425823 -0.015924 -0.4390054 -0.2826550 0.6877109 52.2922194 11.4242639 -50.3394482 20.1960116