# volRat = 0.650000
# viscRat = 5.000000
# alpha = 0.250000
# shRate = 5.500000
# tnum = 9900
# time = 7.904363
VARIABLES = X, Y, Z, U, V, W, F_B0, F_B1, F_B2, F_0, F_1, F_2, T
ZONE N=2562 E=5120 F=FEPOINT ET=TRIANGLE
1.4953146 0.0090250 0.6212299 0.754734 -0.277115 -0.000003 3.1136499 8.5021194 0.0000014 31.2311642 47.9582042 -0.0003031 28.8255724
-1.6475596 0.9598707 0.6212299 0.794081 0.115020 -0.000003 -2.0920305 14.2713226 0.0000040 -28.5905942 67.0458226 0.0002459 22.9173882
1.6475596 -0.9598707 0.6212299 -0.794081 -0.115020 -0.000003 2.0920296 -14.2713181 0.0000039 28.5905815 -67.0458046 -0.0000444 22.9173346
-1.4953146 -0.0090250 0.6212299 -0.754734 0.277115 -0.000003 -3.1136503 -8.5021203 0.0000014 -31.2311536 -47.9582026 -0.0002647 28.8255439
0.9344965 -0.2526760 1.1232390 0.154108 0.130537 -0.015975 -2.1737823 7.7715923 43.9636598 -1.3471392 12.2650713 98.6939487 29.1074179
0.9344965 -0.2526760 0.1192207 0.154117 0.130536 0.015964 -2.1739880 7.7724897 -43.9683912 -1.3497650 12.2659135 -98.6984133 29.1065604
-0.9344965 0.2526759 1.1232390 -0.154109 -0.130536 -0.015975 2.1737975 -7.7716492 43.9639755 1.3479288 -12.2655947 98.6940770 29.1069277
-0.9344965 0.2526759 0.1192207 -0.154116 -0.130538 0.015965 2.1739631 -7.7724017 -43.9678907 1.3488861 -12.2651342 -98.6981528 29.1070692
-0.1622663 0.4255456 0.8521837 0.454628 -0.221050 0.028539 -5.2931052 -12.1021927 -7.8435261 16.0120168 41.3645651 30.9209362 31.8632896
0.1622663 -0.4255456 0.8521837 -0.454638 0.221009 0.028567 5.4511930 12.4636578 -8.0777181 -15.8627793 -41.0093199 30.6877501 31.8615888
-0.1622655 0.4255474 0.3902749 0.456429 -0.216861 -0.031173 -13.2643974 -30.3285491 19.6527181 8.2053886 23.4418887 -19.3177898 31.8645469
0.1622655 -0.4255474 0.3902750 -0.456399 0.216947 -0.031123 13.0137039 29.7552875 19.2814341 -8.4461427 -24.0058153 -19.6850872 31.8653126
1.5190785 -0.0009874 0.6653476 0.752623 -0.285104 -0.003545 -4.3841778 -11.5923110 -0.9011866 31.4473687 44.4266818 4.7065540 28.6665707
1.5378848 -0.0142538 0.7136913 0.742202 -0.290241 -0.006550 -3.9674049 -10.1322461 -1.7821821 32.5495551 43.5102120 10.5376709 28.1277440
1.5492382 -0.0303889 0.7647214 0.723781 -0.290182 -0.008902 -3.8557043 -9.5606366 -2.7120817 32.9865713 42.2206116 16.4510845 27.9104534
1.5514118 -0.0490207 0.8166650 0.696700 -0.283644 -0.010925 -3.6817761 -8.9314597 -3.6057186 32.9504116 40.4885093 22.5387651 27.4546166
1.5434095 -0.0697469 0.8679870 0.661828 -0.270006 -0.013057 -3.3693228 -8.0757246 -4.3449133 32.2492594 38.6203896 28.7161865 27.3647791
1.5247904 -0.0920124 0.9171445 0.619842 -0.248709 -0.015630 -2.9340063 -7.0347048 -4.8486568 30.9452186 36.4257359 34.8095184 27.0918882
1.4956438 -0.1151168 0.9627075 0.572671 -0.220047 -0.018719 -2.4338598 -5.9276635 -5.1018719 28.9128419 33.9812363 40.6517025 27.1820121
1.4565367 -0.1382657 1.0034767 0.521855 -0.184619 -0.022154 -1.9033773 -4.7999723 -5.0724046 26.3554983 31.2247301 46.1122641 27.1231273
1.4084176 -0.1606506 1.0385838 0.469669 -0.144004 -0.025440 -1.4151484 -3.7875731 -4.8617298 23.2192606 28.2859629 50.9925263 27.3995960
1.3524920 -0.1815279 1.0675380 0.417405 -0.099786 -0.028113 -0.9803885 -2.8800159 -4.4643024 19.8227062 25.1321713 55.2492614 27.4788275
1.2901008 -0.2002822 1.0902143 0.366732 -0.054210 -0.029626 -0.6455563 -2.1880085 -4.0905506 16.1581662 21.8968158 58.7245894 27.8870792
1.2226310 -0.2164619 1.1068021 0.318167 -0.009216 -0.029643 -0.3904095 -1.6620613 -3.7603521 12.5510386 18.5724863 61.3963850 28.0322398
1.1515009 -0.2297905 1.1177339 0.272577 0.033236 -0.028024 -0.1568302 -1.0072087 -2.7824966 9.0153100 15.6379911 64.2494707 28.4753085
1.0782153 -0.2401753 1.1236184 0.229695 0.071763 -0.024869 -0.0600856 -1.2029355 -4.1231317 5.7089431 11.9520724 64.3811102 28.6246297
1.0050012 -0.2476853 1.1251792 0.190209 0.104582 -0.020148 0.3274186 -3.3486475 -14.6843942 2.8822594 6.9591219 55.9607213 29.0502871
1.7590137 -0.9305748 0.6943632 -0.742804 -0.243413 -0.008648 -1.1016875 3.3573596 -0.5363192 44.8175708 -60.9001882 11.4357312 20.5645183
1.7743841 -0.9063871 0.7693743 -0.699382 -0.273139 -0.015967 -0.7478396 1.9415272 -0.6792612 47.5798570 -57.1818519 23.0489223 20.0487897
1.7755382 -0.8719124 0.8434936 -0.637582 -0.290092 -0.020822 -0.1980228 0.4508916 -0.2613767 48.3232137 -51.6777449 34.3670314 19.6961333
1.7620445 -0.8282331 0.9132669 -0.559545 -0.292039 -0.021899 0.1326864 -0.2697614 0.2341644 46.8152266 -44.9132915 44.2197985 19.7203741
1.7342217 -0.7773487 0.9756734 -0.470395 -0.278057 -0.019120 0.1642112 -0.3009579 0.3755223 43.5261743 -37.4605036 52.1675858 20.0159374
1.6933074 -0.7216780 1.0286275 -0.375824 -0.249103 -0.013753 -0.0007304 0.0012068 -0.0021486 38.9031286 -29.9863323 57.9937353 20.6529713
1.6411198 -0.6635702 1.0711826 -0.281360 -0.208335 -0.007747 -0.1978202 0.2903609 -0.7538662 33.6211034 -22.9518805 61.9509715 21.5077202
1.5796526 -0.6049621 1.1033948 -0.191204 -0.160073 -0.002880 -0.3049207 0.3809186 -1.5334644 28.2060781 -16.6360814 64.3984029 22.5050955
1.5107657 -0.5472450 1.1260088 -0.108341 -0.108931 -0.000243 -0.3195283 0.3028705 -2.1871133 23.0452161 -11.0674326 65.7868987 23.5749526
1.4360315 -0.4912998 1.1401410 -0.034328 -0.058845 -0.000173 -0.2585097 0.1208659 -2.5287559 18.3204571 -6.2790116 66.4668903 24.6637226
1.3567005 -0.4376125 1.1470300 0.030002 -0.012865 -0.002391 -0.1789068 -0.0769097 -2.7136135 14.1493956 -2.1321273 66.7045801 25.6961549
1.2737300 -0.3864050 1.1479035 0.084477 0.027059 -0.006281 -0.0978062 -0.2509077 -2.6993308 10.5733050 1.4258214 66.6837038 26.6534786
1.1877900 -0.3377334 1.1438996 0.129478 0.059887 -0.011097 -0.0318739 -0.3812707 -2.5792760 7.4669372 4.5048777 66.5958988 27.5738066
1.0990293 -0.2915825 1.1360747 0.164867 0.085461 -0.016115 0.0220518 -0.6580739 -3.3891210 4.9729488 7.0523470 65.6546605 28.3278639
1.8433822 -0.8943326 0.7008104 -0.680321 -0.359528 -0.009242 1.4081445 -2.6627079 0.5281618 59.1786268 -56.2073603 12.7950255 18.2879489
1.8561330 -0.8618333 0.7813359 -0.620816 -0.390511 -0.016532 2.8467156 -4.5844164 2.0279593 61.7056156 -50.7725242 25.7103799 17.5616992
1.8511064 -0.8196183 0.8588778 -0.542737 -0.401718 -0.019740 3.4225034 -4.7699885 3.5942722 60.9545786 -43.9420664 37.3506595 17.5300049
1.8289651 -0.7694617 0.9297070 -0.451593 -0.392516 -0.018453 3.0854275 -3.7276588 4.3789272 57.5536780 -36.1835667 47.0309532 17.7199901
1.7912193 -0.7139185 0.9909758 -0.353295 -0.363448 -0.013784 2.0255996 -2.0909685 3.7488428 51.9637727 -28.3467851 54.3039495 18.5708606
1.7401340 -0.6556270 1.0411477 -0.254862 -0.318452 -0.007771 0.9318381 -0.7888728 2.2206756 45.4096938 -20.9024505 59.3184423 19.4864111
1.6782402 -0.5967932 1.0799674 -0.160806 -0.262666 -0.002737 0.1052025 -0.0661436 0.3229250 38.4923270 -14.2671600 62.4951244 20.8499817
1.6078905 -0.5389759 1.1081171 -0.074881 -0.202037 -0.000002 -0.3030295 0.1055839 -1.2093480 31.8878436 -8.4500543 64.3038013 22.0524026
1.5310079 -0.4831089 1.1267896 0.001581 -0.141458 -0.000172 -0.4365063 -0.0179942 -2.3050104 25.8111078 -3.4826124 65.2239751 23.4937998
1.4490122 -0.4296456 1.1373594 0.067519 -0.084837 -0.002913 -0.3878135 -0.2413005 -2.7849932 20.5372593 0.7843986 65.5814084 24.6076214
1.3628223 -0.3787189 1.1411717 0.123412 -0.034384 -0.007629 -0.2993521 -0.4663235 -3.0491938 15.8665026 4.3865856 65.6162431 25.9430699
1.2728187 -0.3302647 1.1394554 0.168867 0.008518 -0.013387 -0.1954787 -0.6321404 -3.0259856 12.0032069 7.4896229 65.4432553 26.8228335
1.1786017 -0.2841264 1.1332888 0.204625 0.043664 -0.019425 -0.1216790 -0.8342146 -3.2642211 8.5943996 10.0506686 64.9840432 27.9547923
1.9207817 -0.8425547 0.7059860 -0.586419 -0.480897 -0.008716 8.4519847 -10.2969560 2.6204674 73.5559507 -48.0311237 13.9188862 15.7272233
1.9275873 -0.8019159 0.7904745 -0.509260 -0.506360 -0.013663 10.2887296 -10.4506831 6.1609370 74.5747351 -41.3113478 27.2018343 15.3138459
1.9138697 -0.7528483 0.8698694 -0.416666 -0.505646 -0.014028 9.6680027 -8.1482756 8.6458285 71.6723184 -33.5745577 38.8044772 15.4806827
1.8813342 -0.6978938 0.9402469 -0.315967 -0.479389 -0.010091 7.1095082 -4.8232541 8.6743775 65.7399444 -25.6790240 47.8611601 16.2936437
1.8327098 -0.6399004 0.9991713 -0.214531 -0.431956 -0.004334 4.0303717 -2.0373570 6.4526315 58.0090177 -18.0539623 54.4247101 17.5261902
1.7711831 -0.5813257 1.0458326 -0.118098 -0.369654 0.000739 1.5766554 -0.4833422 3.2584194 49.5944931 -11.2686894 58.7103197 19.0501031
1.6997586 -0.5238937 1.0806951 -0.030455 -0.299882 0.003325 0.1194097 -0.0072269 0.3172337 41.4079777 -5.3212867 61.3205950 20.6484442
1.6208698 -0.4685938 1.1049685 0.046720 -0.228862 0.002692 -0.5056648 -0.1320415 -1.7334946 33.9078830 -0.2717286 62.7467355 22.2490768
1.5362541 -0.4158537 1.1201481 0.113031 -0.161398 -0.000953 -0.6486436 -0.4544841 -2.8993486 27.2599538 4.0258387 63.4561708 23.7712408
1.4469703 -0.3657432 1.1277327 0.168448 -0.100411 -0.006791 -0.5654210 -0.7501914 -3.3538445 21.5839016 7.6543070 63.7197614 25.1397652
1.3534250 -0.3181393 1.1290833 0.213507 -0.047525 -0.013863 -0.4287140 -0.9699543 -3.4686071 16.6791310 10.7558727 63.7464078 26.3988315
1.2553153 -0.2728541 1.1253948 0.248230 -0.002993 -0.021247 -0.2891009 -1.0860843 -3.3331478 12.5605830 13.3362679 63.7281537 27.5089374
1.9862205 -0.7745546 0.7098506 -0.455407 -0.595271 -0.006109 20.0400601 -15.2917987 5.4013683 85.4421428 -36.8292006 14.3025128 13.3126864
1.9839347 -0.7270023 0.7964458 -0.362675 -0.607526 -0.007581 20.3676385 -12.2013411 10.7611779 84.0533600 -29.4425227 27.4584271 13.1397005
1.9593616 -0.6732357 0.8757673 -0.260835 -0.588054 -0.004235 16.1627816 -7.1876088 12.8999415 78.5287997 -21.8230613 38.3889050 14.0082237
1.9153994 -0.6162071 0.9441000 -0.158171 -0.541393 0.001463 10.1392999 -2.8811970 11.1368383 70.2965098 -14.4016244 46.7843950 15.2786178
1.8558357 -0.5585653 0.9996884 -0.061213 -0.474811 0.006693 4.7492457 -0.4873561 6.8855282 60.7510486 -7.7372003 52.6428147 17.1535642
1.7844290 -0.5021787 1.0424925 0.025945 -0.397469 0.009250 1.3277270 0.1543827 2.4921887 51.1657766 -1.8251694 56.4310836 18.9478143
1.7042820 -0.4480852 1.0735646 0.101982 -0.317020 0.008034 -0.3719701 -0.1460377 -0.8971729 42.2195903 3.1770968 58.7664459 20.9723222
1.6176208 -0.3966891 1.0944533 0.166388 -0.239535 0.003429 -0.9086703 -0.6843769 -2.8161402 34.3404877 7.4462204 60.0852111 22.6073534
1.5258188 -0.3480087 1.1067918 0.219900 -0.168640 -0.003795 -0.9386002 -1.1605061 -3.7599164 27.4827993 11.0296378 60.8126718 24.3660587
1.4295039 -0.3018746 1.1120994 0.262765 -0.106266 -0.012414 -0.7491413 -1.4248536 -3.9262400 21.6938229 14.0493897 61.1755072 25.6713568
1.3286433 -0.2580730 1.1117099 0.295551 -0.053176 -0.021346 -0.5594353 -1.5939411 -3.9134241 16.7373730 16.5677778 61.3425091 27.0816627
2.0338926 -0.6919428 0.7119603 -0.288696 -0.686341 -0.001891 32.0444953 -13.3815297 7.8083039 92.3833803 -24.0085186 13.9705717 11.4629970
2.0201744 -0.6400367 0.7985761 -0.187206 -0.678272 0.001214 27.7471065 -7.5324318 13.4242891 88.3278281 -16.9766017 26.3396962 12.0163333
1.9837333 -0.5847544 0.8759430 -0.085057 -0.636816 0.007211 18.7882934 -2.2794040 13.8701638 80.5870603 -10.1141102 36.5069089 13.4115570
1.9285722 -0.5288401 0.9409743 0.010314 -0.570124 0.013138 9.7566836 0.4494252 9.9885638 70.7645952 -3.7518604 44.1446093 15.3789498
1.8590962 -0.4742561 0.9927106 0.095013 -0.488506 0.016027 3.4044828 0.8317522 4.6247782 60.2502776 1.9657844 49.5206548 17.5527098
1.7791479 -0.4220709 1.0317454 0.167484 -0.401158 0.014745 0.0551295 0.0269584 0.0972182 50.2189783 6.8227386 53.0419297 19.7194415
1.6915803 -0.3726624 1.0594968 0.228187 -0.315616 0.009363 -1.2129669 -0.9694911 -2.7483077 41.1660703 11.0048772 55.3180061 21.7586600
1.5982355 -0.3260000 1.0776553 0.277738 -0.236258 0.000927 -1.4105975 -1.6929735 -4.0940349 33.3403262 14.4914863 56.7473320 23.6092643
1.5000941 -0.2818709 1.0878704 0.317104 -0.165818 -0.009198 -1.2000369 -2.0720814 -4.4731536 26.6233420 17.4597627 57.6624961 25.2297890
1.3974530 -0.2400282 1.0916239 0.346620 -0.105095 -0.019730 -0.9014845 -2.1908503 -4.3507525 20.9765859 19.9162983 58.2706639 26.6580517
2.0587908 -0.5992089 0.7119522 -0.097883 -0.738476 0.003203 36.9674655 -4.7457950 8.4060366 93.5192900 -11.6543360 13.0687214 10.7253822
2.0328336 -0.5464291 0.7965333 0.002178 -0.707375 0.010032 27.2775268 0.3498209 12.4514981 87.3624550 -5.5007230 24.4645225 11.8743676
1.9851172 -0.4930251 0.8704541 0.094461 -0.646038 0.017201 15.3112821 2.5799166 10.7574002 78.2509695 0.3905031 33.7217126 13.9417809
1.9202703 -0.4409784 0.9314630 0.174721 -0.565027 0.021410 6.0252350 2.1119866 5.9084768 67.7586836 5.7467158 40.7175925 16.1391378
1.8427309 -0.3913582 0.9792883 0.241931 -0.475090 0.020896 0.6638372 0.3795605 0.8673792 57.2225991 10.4345313 45.7162010 18.6307189
1.7560175 -0.3445097 1.0149185 0.296939 -0.384705 0.015534 -1.5235577 -1.2905004 -2.5887482 47.4561158 14.4627462 49.1567783 20.7610355
1.6625490 -0.3003578 1.0399179 0.341069 -0.299638 0.006447 -2.0292829 -2.4234001 -4.4267584 38.8378705 17.8678293 51.5191226 22.9124302
1.5637717 -0.2586508 1.0559840 0.375424 -0.223045 -0.004823 -1.7688582 -2.8941711 -4.9258103 31.4471546 20.7625950 53.1715112 24.5836560
1.4603711 -0.2191151 1.0647152 0.400762 -0.156329 -0.016767 -1.3680883 -3.0145626 -4.8617181 25.1494830 23.1620473 54.3636011 26.2882871
2.0585652 -0.5029422 0.7097970 0.097219 -0.744340 0.007602 30.7723318 4.1789695 6.7036759 89.7266232 -0.8167392 11.9453830 11.3794831
2.0213420 -0.4526606 0.7906672 0.185622 -0.693937 0.016503 18.6971974 5.2564499 8.2526317 82.2561109 4.4707822 22.2413015 13.1357831
1.9642808 -0.4037228 0.8602096 0.260829 -0.619794 0.022855 7.8632136 3.5352335 5.3798741 72.7068828 9.4602878 30.6222822 15.4191071
1.8919870 -0.3571613 0.9169417 0.321951 -0.532764 0.024301 1.0297832 0.6716774 0.9882111 62.4523152 13.9137779 37.0046132 17.8560722
1.8084836 -0.3132817 0.9610446 0.370522 -0.442305 0.020122 -2.0308930 -1.8302940 -2.6035483 52.5157703 17.8040817 41.7404370 20.2039097
1.7167808 -0.2719688 0.9936736 0.408167 -0.355029 0.011435 -2.7720681 -3.3547332 -4.6222500 43.5763974 21.1274004 45.1906529 22.3757612
1.6188709 -0.2329431 1.0163994 0.436798 -0.275148 -0.000223 -2.4923911 -3.9758469 -5.3235533 35.6964318 23.9671215 47.7195266 24.3006308
1.5159058 -0.1959153 1.0308591 0.457057 -0.204574 -0.012981 -1.9383144 -4.0236567 -5.2596267 28.9800552 26.3320295 49.5731581 25.9677574
2.0343655 -0.4097983 0.7058637 0.275912 -0.708974 0.010169 17.5134022 6.9211598 3.7353607 82.5179838 8.4724808 10.7768608 13.1880313
1.9880756 -0.3642853 0.7819254 0.346527 -0.647362 0.018983 7.6446693 4.2143468 3.3281400 74.6414848 12.9691220 20.0308688 15.0925160
1.9241054 -0.3210381 0.8466496 0.402173 -0.569217 0.023259 0.5929754 0.4375834 0.4022602 65.4340803 17.1211828 27.5595333 17.4861334
1.8465749 -0.2803134 0.8991017 0.444433 -0.483845 0.021591 -2.7817330 -2.6859344 -2.6546228 56.0661452 20.8170035 33.4700814 19.7117680
1.7589228 -0.2419609 0.9396844 0.475872 -0.398870 0.014552 -3.6825148 -4.5853638 -4.6973886 47.2198955 24.0879489 37.9992196 22.0302964
1.6636915 -0.2056837 0.9695844 0.498502 -0.319029 0.003610 -3.3079929 -5.2553281 -5.4782678 39.2776753 26.8881712 41.4453600 23.8811366
1.5625667 -0.1711943 0.9903244 0.513640 -0.247276 -0.009150 -2.6065759 -5.2372955 -5.5057918 32.3276289 29.2684264 44.0649827 25.7528502
1.9900064 -0.3245330 0.7007571 0.424632 -0.646481 0.010481 4.8039198 3.1869246 1.0207094 73.5223831 16.3864301 9.6522410 15.6692526
1.9371126 -0.2846368 0.7714623 0.476342 -0.582181 0.017652 -0.9127836 -0.7620673 -0.3979884 65.9816944 20.1368057 17.9100884 17.6796840
1.8683690 -0.2470534 0.8312344 0.514129 -0.507215 0.019201 -3.9200318 -4.0903456 -2.6714410 57.6882233 23.6523893 24.7514926 19.8405521
1.7872606 -0.2115917 0.8794445 0.540444 -0.428799 0.014889 -4.6726464 -6.0677049 -4.4824380 49.4974470 26.8022476 30.2437271 21.9454375
1.6967321 -0.1779466 0.9165841 0.558076 -0.352709 0.005810 -4.1786643 -6.7257002 -5.3482284 41.8087094 29.5865942 34.5880262 23.9106419
1.5990197 -0.1458523 0.9438396 0.568437 -0.282459 -0.006004 -3.2921028 -6.5364323 -5.4468701 34.9633215 31.9672321 37.9811188 25.6715898
1.9302563 -0.2493221 0.6950805 0.539325 -0.572469 0.008947 -3.1094797 -2.9504982 -0.6666830 64.2188775 23.0351642 8.6273233 18.3758370
1.8727585 -0.2147773 0.7602686 0.574496 -0.511546 0.013482 -5.1801757 -5.8977830 -2.2859948 57.5179436 26.2062463 16.0863380 20.0893030
1.8006502 -0.1820499 0.8150633 0.597825 -0.443753 0.012425 -5.6229856 -7.7093026 -3.8804693 50.3674589 29.2214816 22.3271752 22.1305255
1.7169196 -0.1508104 0.8589797 0.611881 -0.374654 0.006038 -4.9533261 -8.1944392 -4.8017986 43.3601071 31.9459124 27.4310017 23.8765740
1.6242606 -0.1208363 0.8925878 0.618891 -0.308794 -0.003931 -3.9400350 -7.8597904 -5.0722427 36.8087745 34.3753086 31.5227663 25.6996109
1.8594788 -0.1842832 0.6892831 0.622744 -0.498707 0.006369 -6.2862594 -7.8914555 -1.3710775 55.6150682 28.7064686 7.7269540 20.9801045
1.7986095 -0.1542115 0.7489778 0.645018 -0.444267 0.008103 -6.3275333 -9.2661972 -2.8416406 49.8548223 31.4889762 14.4735115 22.6282392
1.7237513 -0.1251901 0.7987128 0.657725 -0.385076 0.004619 -5.5558570 -9.5649758 -3.8921828 43.7202627 34.1261120 20.1911481 24.2905834
1.6377655 -0.0970265 0.8381166 0.662739 -0.325739 -0.003032 -4.4535582 -9.0487183 -4.3587822 37.8031534 36.5103740 24.8998986 25.9055907
1.7810695 -0.1283994 0.6836138 0.680513 -0.431721 0.003301 -6.6061018 -10.4533757 -1.4703172 48.1213507 33.5816584 7.0149710 23.3116654
1.7172378 -0.1016593 0.7378119 0.693234 -0.384347 0.002348 -5.8212019 -10.5450261 -2.6596096 43.2278003 36.0499924 13.1649707 24.6189698
1.6395623 -0.0751260 0.7821691 0.698153 -0.333562 -0.002843 -4.7567377 -9.9556895 -3.3668795 38.0142116 38.3864530 18.3151249 26.2122731
1.6974459 -0.0802411 0.6781260 0.718504 -0.373964 0.000545 -5.8036112 -11.1820198 -1.3127104 41.6679926 37.8237033 6.3169758 25.4005639
1.6301775 -0.0555676 0.7264679 0.724308 -0.333047 -0.002734 -4.8100669 -10.4708191 -2.2151625 37.4870218 40.0490942 11.8732796 26.6509012
1.6101921 -0.0383513 0.6725329 0.741246 -0.324989 -0.002092 -4.6372368 -10.5973029 -1.0501945 36.3802821 41.4828920 5.8058534 27.1318833
1.5781556 -0.0223104 0.6212299 0.750318 -0.308961 -0.000003 -5.1493909 -12.5368373 -0.0000002 34.0540146 41.5316454 -0.0001016 27.7924145
1.6632604 -0.0600176 0.6212299 0.733585 -0.354368 -0.000003 -5.0674910 -10.5174128 -0.0000001 39.5738771 39.7326994 -0.0000139 25.9965976
1.7477434 -0.1041721 0.6212299 0.704391 -0.407699 -0.000003 -6.4338841 -11.1457488 -0.0000001 45.3786540 35.6598060 -0.0000093 24.2736278
1.8287844 -0.1556802 0.6212299 0.657681 -0.471042 -0.000002 -6.7518383 -9.4542602 -0.0000001 52.4124651 31.1585855 -0.0000517 21.9156589
1.9039639 -0.2158517 0.6212299 0.588065 -0.543058 -0.000002 -5.1352060 -5.5789944 -0.0000001 60.6286249 25.8818123 0.0000747 19.5109594
1.9701908 -0.2859474 0.6212299 0.489569 -0.619594 -0.000002 0.6791970 0.5388284 0.0000000 69.8614917 19.7435317 -0.0000581 16.6842197
2.0234300 -0.3665451 0.6212299 0.357310 -0.691380 -0.000002 11.9340231 6.2028937 0.0000000 79.3564307 12.4412197 0.0000246 14.0932901
2.0588554 -0.4566136 0.6212299 0.191185 -0.743881 -0.000002 26.9073112 6.9928405 0.0000000 87.9066176 3.8255361 -0.0000135 11.7084358
2.0718025 -0.5526497 0.6212299 0.000011 -0.760993 -0.000002 38.3627681 0.1145393 -0.0000000 93.8139381 -6.2243889 -0.0000027 10.4994961
2.0594902 -0.6486477 0.6212299 -0.197958 -0.731909 -0.000002 39.1033662 -10.4467289 -0.0000001 95.5248336 -17.8996372 -0.0000432 10.4515905
2.0225320 -0.7375385 0.6212299 -0.380710 -0.657900 -0.000002 28.8992481 -16.6068415 -0.0000001 91.6312952 -30.8162316 0.0000082 11.9245336
1.9649759 -0.8134693 0.6212299 -0.531371 -0.551660 -0.000002 15.2761018 -14.6316746 -0.0000001 81.9235855 -43.2751094 -0.0000439 14.1085636
1.8927838 -0.8733225 0.6212299 -0.643832 -0.431054 -0.000002 4.9639109 -7.3739069 -0.0000000 68.3214239 -53.1011926 -0.0000859 16.7889797
1.8120621 -0.9167326 0.6212299 -0.720368 -0.311165 -0.000002 -0.1330472 0.3061457 0.0000000 53.5017086 -59.2570136 0.0000355 19.1171714
1.7286699 -0.9450683 0.6212299 -0.768993 -0.199509 -0.000002 -1.4173692 5.4193499 -0.0000000 40.1630052 -64.6073007 -0.0001811 21.4475169
1.6701719 -0.9536966 0.5575590 -0.781110 -0.138894 0.006488 -1.7942467 10.0429971 1.2163882 31.5164817 -63.0721439 -8.8715677 22.6353153
1.6857388 -0.9370610 0.4888993 -0.751655 -0.163444 0.012851 -1.4567517 6.7856378 1.8965002 34.2675439 -60.6101897 -19.7064482 22.0285878
1.6911456 -0.9100979 0.4187525 -0.704196 -0.181103 0.018208 -1.2277811 4.9600553 2.2884306 35.4905249 -56.6916566 -30.2386790 21.8066063
1.6845125 -0.8734564 0.3508747 -0.640635 -0.189209 0.020564 -0.9533574 3.4511250 2.3438167 35.4362788 -51.2424921 -39.9658295 21.4983396
1.6652027 -0.8285023 0.2883050 -0.563285 -0.185517 0.019544 -0.7222870 2.4093752 2.2851415 33.7524181 -44.7278961 -48.2612813 21.6662176
1.6335650 -0.7771946 0.2334089 -0.477046 -0.169480 0.015529 -0.5299999 1.6694116 2.1620792 30.9658347 -37.7802866 -54.8165920 21.8475137
1.5906684 -0.7217024 0.1876346 -0.386664 -0.142210 0.009854 -0.4160336 1.2647874 2.2319493 27.2872431 -30.8473807 -59.6238795 22.4673386
1.5379860 -0.6640637 0.1515046 -0.297079 -0.106436 0.004109 -0.3165619 0.9482202 2.3185865 23.2739699 -24.3576898 -62.8953117 23.0279819
1.4771030 -0.6059522 0.1247825 -0.211425 -0.065684 -0.000263 -0.2357702 0.7110717 2.5110221 19.1143843 -18.4757431 -64.9561806 23.9763572
1.4095187 -0.5486003 0.1067175 -0.132687 -0.023646 -0.002513 -0.1473057 0.4606361 2.5587726 15.2277221 -13.2548511 -66.1663565 24.6907074
1.3365559 -0.4928307 0.0962873 -0.062036 0.016569 -0.002451 -0.0710611 0.2468720 2.6342301 11.6147082 -8.6858079 -66.7923794 25.7152339
1.2593639 -0.4391531 0.0923623 -0.000515 0.052540 -0.000381 -0.0043221 0.0522128 2.5418071 8.4544686 -4.7304806 -67.0604051 26.4284326
1.1790135 -0.3878905 0.0938087 0.051833 0.082619 0.003153 0.0512483 -0.1162858 2.7642929 5.6957323 -1.2704656 -66.9724305 27.3914062
1.0966500 -0.3392977 0.0995209 0.094791 0.105979 0.007490 0.0738487 -0.2078806 2.1774335 3.5134163 1.6500334 -66.9287412 27.9295866
1.0142889 -0.2939741 0.1082816 0.129281 0.121966 0.012096 -0.0809018 0.2549449 -1.7868357 1.2318204 5.2791102 -73.1099759 28.8283354
1.6101921 -0.0383513 0.5699269 0.741246 -0.324989 0.002087 -4.6372384 -10.5973064 1.0501945 36.3801809 41.4828787 -5.8059674 27.1318062
1.6301775 -0.0555676 0.5159919 0.724308 -0.333047 0.002728 -4.8100664 -10.4708180 2.2151620 37.4871177 40.0490845 -11.8731022 26.6509130
1.6395623 -0.0751260 0.4602906 0.698154 -0.333562 0.002838 -4.7567400 -9.9556943 3.3668808 38.0142100 38.3863310 -18.3153324 26.2121609
1.6377655 -0.0970265 0.4043431 0.662740 -0.325739 0.003026 -4.4535573 -9.0487166 4.3587812 37.8031594 36.5103711 -24.8998391 25.9056497
1.6242607 -0.1208362 0.3498720 0.618893 -0.308794 0.003925 -3.9400364 -7.8597932 5.0722442 36.8088837 34.3751576 -31.5228246 25.6994286
1.5990197 -0.1458523 0.2986202 0.568439 -0.282459 0.005998 -3.2921038 -6.5364344 5.4468716 34.9633348 31.9672112 -37.9810689 25.6716059
1.5625667 -0.1711943 0.2521354 0.513643 -0.247275 0.009143 -2.6065766 -5.2372970 5.5057932 32.3275697 29.2682750 -44.0650873 25.7528017
1.5159058 -0.1959153 0.2116007 0.457059 -0.204574 0.012974 -1.9383161 -4.0236603 5.2596312 28.9801802 26.3319923 -49.5730668 25.9676279
1.4603711 -0.2191151 0.1777445 0.400766 -0.156328 0.016760 -1.3680879 -3.0145618 4.8617167 25.1494580 23.1619803 -54.3636127 26.2882096
1.3974530 -0.2400282 0.1508358 0.346624 -0.105095 0.019723 -0.9014868 -2.1908559 4.3507635 20.9764325 19.9162041 -58.2706636 26.6581335
1.3286434 -0.2580729 0.1307499 0.295555 -0.053177 0.021338 -0.5594367 -1.5939453 3.9134342 16.7375495 16.5678740 -61.3423906 27.0813501
1.2553153 -0.2728541 0.1170650 0.248234 -0.002993 0.021238 -0.2890960 -1.0860659 3.3330912 12.5605235 13.3362360 -63.7281886 27.5090031
1.1786017 -0.2841264 0.1091710 0.204629 0.043664 0.019416 -0.1216850 -0.8342553 3.2643804 8.5942475 10.0508379 -64.9837941 27.9547687
1.0990293 -0.2915825 0.1063851 0.164870 0.085460 0.016104 0.0220524 -0.6580903 3.3892053 4.9736940 7.0526359 -65.6545056 28.3276906
1.6974459 -0.0802411 0.5643338 0.718505 -0.373964 -0.000551 -5.8036098 -11.1820170 1.3127098 41.6679965 37.8237459 -6.3168925 25.4006279
1.7172378 -0.1016592 0.5046479 0.693235 -0.384347 -0.002353 -5.8212022 -10.5450267 2.6596094 43.2277229 36.0499852 -13.1651656 24.6189735
1.7237513 -0.1251901 0.4437469 0.657727 -0.385076 -0.004625 -5.5558549 -9.5649723 3.8921812 43.7202598 34.1262431 -20.1909196 24.2906376
1.7169196 -0.1508104 0.3834801 0.611883 -0.374654 -0.006043 -4.9533260 -8.1944392 4.8017983 43.3600432 31.9458790 -27.4311496 23.8765686
1.6967321 -0.1779466 0.3258756 0.558078 -0.352710 -0.005816 -4.1786633 -6.7256987 5.3482270 41.8086080 29.5867447 -34.5879541 23.9107822
1.6636915 -0.2056837 0.2728754 0.498505 -0.319029 -0.003616 -3.3079927 -5.2553279 5.4782674 39.2777135 26.8881646 -41.4453618 23.8810559
1.6188709 -0.2329431 0.2260604 0.436801 -0.275148 0.000217 -2.4923901 -3.9758453 5.3235509 35.6963862 23.9672319 -47.7194972 24.3007616
1.5637717 -0.2586508 0.1864758 0.375427 -0.223045 0.004816 -1.7688571 -2.8941693 4.9258069 31.4470463 20.7626137 -53.1715497 24.5837197
1.5000942 -0.2818709 0.1545893 0.317107 -0.165818 0.009191 -1.2000362 -2.0720801 4.4731507 26.6234691 17.4597782 -57.6624680 25.2297844
1.4295039 -0.3018746 0.1303604 0.262768 -0.106266 0.012406 -0.7491401 -1.4248512 3.9262332 21.6937973 14.0494282 -61.1755152 25.6713957
1.3534250 -0.3181393 0.1133765 0.213511 -0.047525 0.013855 -0.4287133 -0.9699527 3.4686013 16.6789852 10.7556631 -63.7464816 26.3990802
1.2728187 -0.3302647 0.1030044 0.168871 0.008517 0.013379 -0.1954790 -0.6321412 3.0259892 12.0033842 7.4896353 -65.4432326 26.8226240
1.1877900 -0.3377334 0.0985601 0.129483 0.059888 0.011088 -0.0318735 -0.3812662 2.5792452 7.4666616 4.5043060 -66.5959883 27.5740134
1.7810695 -0.1283994 0.5588460 0.680513 -0.431721 -0.003306 -6.6061036 -10.4533786 1.4703174 48.1213885 33.5816019 -7.0149519 23.3116055
1.7986095 -0.1542115 0.4934819 0.645019 -0.444266 -0.008108 -6.3275340 -9.2661982 2.8416407 49.8548698 31.4889569 -14.4734339 22.6282435
1.8006502 -0.1820499 0.4273965 0.597826 -0.443753 -0.012430 -5.6229872 -7.7093048 3.8804702 50.3674415 29.2213551 -22.3273583 22.1304845
1.7872606 -0.2115917 0.3630153 0.540445 -0.428799 -0.014895 -4.6726469 -6.0677056 4.4824383 49.4975601 26.8022708 -30.2435334 21.9453906
1.7589228 -0.2419609 0.3027754 0.475874 -0.398870 -0.014557 -3.6825161 -4.5853654 4.6973900 47.2198517 24.0877640 -37.9993811 22.0302395
1.7167808 -0.2719688 0.2487862 0.408170 -0.355029 -0.011440 -2.7720689 -3.3547342 4.6222512 43.5763990 21.1274433 -45.1905705 22.3757893
1.6625490 -0.3003578 0.2025419 0.341072 -0.299638 -0.006453 -2.0292834 -2.4234008 4.4267596 38.8378803 17.8676630 -51.5191631 22.9122653
1.5982355 -0.3260000 0.1648045 0.277741 -0.236258 -0.000933 -1.4105984 -1.6929747 4.0940377 33.3403440 14.4915466 -56.7472611 23.6092720
1.5258188 -0.3480087 0.1356679 0.219903 -0.168640 0.003788 -0.9386017 -1.1605080 3.7599222 27.4825880 11.0295456 -60.8126978 24.3660230
1.4469703 -0.3657432 0.1147271 0.168451 -0.100412 0.006783 -0.5654218 -0.7501926 3.3538496 21.5840756 7.6544649 -63.7196607 25.1396093
1.3628223 -0.3787189 0.1012881 0.123416 -0.034385 0.007621 -0.2993530 -0.4663248 3.0492023 15.8663663 4.3866757 -65.6161855 25.9429538
1.2737300 -0.3864050 0.0945563 0.084481 0.027057 0.006272 -0.0978064 -0.2509081 2.6993352 10.5733118 1.4261963 -66.6836569 26.6536308
1.8594788 -0.1842832 0.5531767 0.622745 -0.498707 -0.006374 -6.2862583 -7.8914541 1.3710771 55.6149956 28.7065470 -7.7269718 20.9801459
1.8727585 -0.2147773 0.4821912 0.574497 -0.511546 -0.013487 -5.1801753 -5.8977826 2.2859945 57.5179241 26.2062580 -16.0863608 20.0892893
1.8683690 -0.2470534 0.4112254 0.514130 -0.507215 -0.019206 -3.9200308 -4.0903446 2.6714403 57.6881805 23.6525017 -24.7514256 19.8406022
1.8465749 -0.2803134 0.3433581 0.444434 -0.483845 -0.021596 -2.7817317 -2.6859332 2.6546215 56.0660411 20.8169914 -33.4702120 19.7118031
1.8084836 -0.3132817 0.2814151 0.370524 -0.442305 -0.020128 -2.0308917 -1.8302928 2.6035466 52.5158598 17.8042327 -41.7402824 20.2039101
1.7560175 -0.3445097 0.2275413 0.296941 -0.384705 -0.015539 -1.5235574 -1.2905002 2.5887477 47.4560072 14.4627032 -49.1568747 20.7610776
1.6915803 -0.3726624 0.1829630 0.228190 -0.315617 -0.009369 -1.2129661 -0.9694905 2.7483059 41.1661112 11.0049886 -55.3179557 21.7587690
1.6176208 -0.3966891 0.1480065 0.166391 -0.239536 -0.003435 -0.9086691 -0.6843761 2.8161367 34.3404912 7.4461740 -60.0852323 22.6073010
1.5362541 -0.4158537 0.1223117 0.113034 -0.161398 0.000946 -0.6486428 -0.4544836 2.8993452 27.2600788 4.0257842 -63.4561510 23.7713507
1.4490122 -0.4296456 0.1051004 0.067523 -0.084837 0.002906 -0.3878125 -0.2413000 2.7849863 20.5370366 0.7842740 -65.5814603 24.6077828
1.3567005 -0.4376124 0.0954298 0.030005 -0.012865 0.002383 -0.1789063 -0.0769095 2.7136064 14.1496553 -2.1324931 -66.7045540 25.6960833
1.9302563 -0.2493221 0.5473793 0.539325 -0.572469 -0.008951 -3.1094816 -2.9505000 0.6666834 64.2189386 23.0350592 -8.6273941 18.3758193
1.9371126 -0.2846368 0.4709975 0.476343 -0.582181 -0.017657 -0.9127848 -0.7620683 0.3979889 65.9817042 20.1368008 -17.9100354 17.6796805
1.9241054 -0.3210381 0.3958101 0.402174 -0.569217 -0.023263 0.5929739 0.4375823 -0.4022592 65.4341199 17.1210487 -27.5595761 17.4860847
1.8919870 -0.3571612 0.3255180 0.321952 -0.532764 -0.024306 1.0297812 0.6716760 -0.9882092 62.4523466 13.9137959 -37.0045339 17.8560570
1.8427309 -0.3913581 0.2631715 0.241933 -0.475090 -0.020901 0.6638368 0.3795603 -0.8673788 57.2224786 10.4343663 -45.7163265 18.6307155
1.7791480 -0.4220709 0.2107143 0.167487 -0.401158 -0.014751 0.0551280 0.0269577 -0.0972156 50.2191105 6.8228280 -53.0417975 19.7193380