# volRat = 0.650000
# viscRat = 5.000000
# alpha = 0.250000
# shRate = 4.500000
# tnum = 5400
# time = 4.793999
VARIABLES = X, Y, Z, U, V, W, F_B0, F_B1, F_B2, F_0, F_1, F_2, T
ZONE N=2562 E=5120 F=FEPOINT ET=TRIANGLE
1.5209656 0.0040199 0.6212299 0.626454 -0.235359 -0.000001 4.5435879 12.1310190 0.0000019 27.7574692 42.0308067 0.0000890 22.1766097
-1.6198655 0.9659797 0.6212299 0.662744 0.081855 0.000001 -1.4297470 11.4048492 0.0000033 -21.2641991 52.1997318 -0.0003869 17.9723544
1.6198654 -0.9659797 0.6212299 -0.662742 -0.081851 -0.000001 1.4297717 -11.4050444 0.0000031 21.2631138 -52.2006278 0.0002152 17.9742739
-1.5209656 -0.0040199 0.6212299 -0.626455 0.235363 -0.000000 -4.5436455 -12.1311733 0.0000020 -27.7564830 -42.0316481 -0.0000550 22.1778670
0.9426501 -0.2311714 1.1195606 0.157912 0.107312 -0.018502 -1.8516690 10.1854828 44.2365513 -0.9351100 15.1358760 86.4798903 22.7135380
0.9426501 -0.2311714 0.1228992 0.157918 0.107302 0.018538 -1.8545621 10.2016521 -44.3064858 -0.9404389 15.1522720 -86.5484647 22.7133462
-0.9426501 0.2311715 1.1195606 -0.157918 -0.107299 -0.018537 1.8544146 -10.2006181 44.3022601 0.9408799 -15.1516230 86.5440082 22.7130347
-0.9426501 0.2311715 0.1228992 -0.157918 -0.107300 0.018532 1.8542330 -10.1998283 -44.2985773 0.9401855 -15.1515880 -86.5403033 22.7128813
-0.1822493 0.4274322 0.8553112 0.364489 -0.186104 0.026327 -5.4515661 -12.1271221 -8.1346727 11.2073579 28.7258709 22.5524846 24.7457424
0.1822485 -0.4274341 0.8553125 -0.366100 0.182535 0.028644 11.8671444 26.3990393 -17.7064275 -4.8723023 -14.6284418 13.1654893 24.7593708
-0.1822488 0.4274333 0.3871478 0.365408 -0.184095 -0.027657 -9.0607288 -20.1559434 13.5197007 7.6381139 20.8010919 -17.2735546 24.7471022
0.1822486 -0.4274339 0.3871474 -0.365921 0.182918 -0.028395 11.2568233 25.0413132 16.7958689 -5.4787391 -15.9712293 -14.0504340 24.7561423
1.5448079 -0.0061491 0.6648330 0.624340 -0.242913 -0.002614 -5.4490833 -14.0355781 -1.0773262 24.3731523 29.5482465 3.2792509 22.0200606
1.5633086 -0.0193753 0.7127869 0.615272 -0.248111 -0.004789 -4.0705141 -10.0910352 -1.7605272 26.3537345 31.4281718 7.8656450 21.5680827
1.5739205 -0.0351941 0.7635284 0.599801 -0.248700 -0.006429 -3.9106351 -9.3930031 -2.6485822 26.7775908 30.5607813 12.3180965 21.3859826
1.5749394 -0.0531833 0.8152341 0.577468 -0.243496 -0.007913 -3.8175382 -8.9673044 -3.6001927 26.6664050 29.0653678 16.8035452 21.0275316
1.5654353 -0.0728961 0.8663027 0.549179 -0.231972 -0.009647 -3.4540755 -8.0293717 -4.2906931 26.1145858 27.8668412 21.4655644 20.9763200
1.5450693 -0.0937443 0.9151396 0.515578 -0.213674 -0.011940 -3.0016884 -7.0063355 -4.7809514 25.0349999 26.4105620 26.0450858 20.7979668
1.5140530 -0.1150163 0.9602936 0.478332 -0.188955 -0.014849 -2.4954955 -5.9522541 -5.0443173 23.3568137 24.8147032 30.4311890 20.9120326
1.4730767 -0.1359394 1.0005798 0.438732 -0.158464 -0.018215 -1.9639212 -4.8901449 -5.0476500 21.2548030 23.0316155 34.5453863 20.9209208
1.4231938 -0.1557655 1.0351740 0.398541 -0.123665 -0.021587 -1.4749967 -3.9376393 -4.8832468 18.7073939 21.1536110 38.2239278 21.1927724
1.3656840 -0.1738483 1.0636464 0.358704 -0.085991 -0.024563 -1.0490072 -3.1092366 -4.5903378 15.9615787 19.1000927 41.4112952 21.3045664
1.3019274 -0.1896990 1.0859346 0.320380 -0.047395 -0.026636 -0.6972402 -2.4113876 -4.2160451 13.0489825 17.0569647 44.1114212 21.6720864
1.2333193 -0.2030113 1.1022802 0.283780 -0.009506 -0.027488 -0.4075559 -1.7817499 -3.6841955 10.2171191 15.0046469 46.4137912 21.8222108
1.1612666 -0.2136640 1.1131495 0.249368 0.026097 -0.026953 -0.2485728 -1.6112902 -3.9517396 7.3720326 12.6842239 47.5688668 22.1949490
1.0872558 -0.2217187 1.1191656 0.216770 0.058272 -0.025059 -0.0844340 -1.3550110 -3.9731174 4.8311251 10.5284136 48.7814284 22.3304904
1.0134920 -0.2274028 1.1210382 0.186288 0.085684 -0.021649 0.1959066 -3.6158447 -12.9101881 2.6045502 6.3429036 41.4992198 22.6739613
1.7309288 -0.9395891 0.6946189 -0.624981 -0.185886 -0.006486 -1.0220995 3.4284481 -0.5321319 33.3169887 -46.3297963 8.5759925 16.1343645
1.7474860 -0.9160235 0.7698076 -0.590628 -0.210728 -0.012080 -0.7326522 2.0789135 -0.7036902 35.5543866 -43.7417362 17.2982964 15.6952850
1.7507994 -0.8818157 0.8442109 -0.540742 -0.225900 -0.015911 -0.2805661 0.6939300 -0.3878309 36.3632337 -39.7145066 25.8195382 15.3675691
1.7403357 -0.8378639 0.9145183 -0.476787 -0.229602 -0.016884 0.0492209 -0.1079993 0.0901523 35.5600137 -34.7068961 33.3289552 15.3093665
1.7161718 -0.7859773 0.9777328 -0.402385 -0.220785 -0.014855 0.1465418 -0.2876223 0.3447517 33.4267252 -29.1041188 39.4642430 15.4616007
1.6792346 -0.7284696 1.0316451 -0.322007 -0.199785 -0.010683 0.0447982 -0.0784453 0.1343857 30.2119123 -23.3661293 44.0157594 15.8874604
1.6310511 -0.6677210 1.0750846 -0.240131 -0.168661 -0.005902 -0.1246176 0.1908014 -0.4799435 26.4029166 -17.8735884 47.1476957 16.5078011
1.5733986 -0.6058278 1.1078704 -0.160567 -0.130667 -0.002024 -0.2433648 0.3081595 -1.2248961 22.3960541 -12.8622551 49.1080177 17.2656917
1.5080045 -0.5444217 1.1305707 -0.086263 -0.089491 -0.000067 -0.2902714 0.2606591 -1.9653144 18.4736595 -8.3629336 50.1885168 18.1118875
1.4363697 -0.4846513 1.1442215 -0.019037 -0.048566 -0.000454 -0.2582401 0.0811472 -2.4574993 14.8268619 -4.4286659 50.6815598 18.9916566
1.3597034 -0.4272576 1.1500782 0.039957 -0.010651 -0.003012 -0.1941716 -0.1443841 -2.7830167 11.5646742 -0.9849725 50.8000944 19.8459240
1.2789292 -0.3726833 1.1494608 0.090131 0.022315 -0.007193 -0.1180271 -0.3599544 -2.8817804 8.7514384 2.0165699 50.7025604 20.6467351
1.1946788 -0.3211613 1.1436496 0.131503 0.049344 -0.012266 -0.0521970 -0.5461298 -2.9115895 6.2878682 4.6152108 50.4837741 21.4246695
1.1070511 -0.2728044 1.1338702 0.163709 0.070202 -0.017480 0.0003930 -0.8777458 -3.6452953 4.3144690 6.7547974 49.5837007 22.0607821
1.8156337 -0.9063193 0.7008000 -0.578602 -0.280074 -0.007111 0.7841774 -1.6182585 0.3068188 44.1382750 -43.2439511 9.5480099 14.3396037
1.8301983 -0.8746780 0.7812945 -0.531675 -0.306521 -0.012907 1.9473127 -3.4182024 1.4353126 46.2850367 -39.3479830 19.2002406 13.7154140
1.8280804 -0.8327673 0.8590411 -0.468763 -0.318001 -0.015667 2.5694399 -3.8997629 2.7706139 46.1182849 -34.3627933 27.9807494 13.6098413
1.8097016 -0.7821311 0.9304533 -0.393699 -0.313696 -0.014959 2.5210330 -3.3137621 3.6459991 44.0165699 -28.5880586 35.3790030 13.6566747
1.7761920 -0.7251531 0.9926314 -0.310927 -0.293505 -0.011436 1.8268995 -2.0494101 3.4194289 40.2137044 -22.6224073 41.0298545 14.2298095
1.7294268 -0.6644532 1.0438125 -0.226091 -0.259876 -0.006613 0.9699626 -0.8906988 2.3200924 35.5543534 -16.8423109 44.9952726 14.8760354
1.6716422 -0.6023858 1.0834478 -0.143241 -0.216469 -0.002397 0.2229006 -0.1513516 0.6815426 30.4521959 -11.5825734 47.5245548 15.9101540
1.6050221 -0.5407683 1.1119696 -0.066040 -0.167941 -0.000045 -0.2129376 0.0788008 -0.8398638 25.4592918 -6.8844213 48.9518768 16.8530546
1.5314172 -0.4808309 1.1304274 0.003831 -0.118487 -0.000280 -0.3984487 -0.0241003 -2.0610394 20.7642960 -2.7909228 49.6443031 18.0150214
1.4522240 -0.4233070 1.1401688 0.064928 -0.071652 -0.002962 -0.3929395 -0.2752038 -2.7321999 16.6330296 0.7805963 49.8637892 18.9376991
1.3683469 -0.3685676 1.1426083 0.117180 -0.029668 -0.007618 -0.3240065 -0.5553277 -3.1387112 12.9342726 3.8543320 49.8075431 20.0492312
1.2801366 -0.3167373 1.1391074 0.159900 0.006057 -0.013393 -0.2232965 -0.7712562 -3.1828729 9.8672834 6.5384523 49.6207647 20.7996495
1.1871309 -0.2677992 1.1309141 0.193430 0.035169 -0.019504 -0.1406887 -0.9647734 -3.2422284 7.1501436 8.8392287 49.3386086 21.7543561
1.8944648 -0.8580984 0.7057431 -0.508195 -0.379373 -0.006964 6.0779097 -8.1346656 1.9335897 55.1216217 -37.6421191 10.3611174 12.2856182
1.9039017 -0.8184120 0.7900940 -0.447265 -0.402487 -0.011243 7.7873978 -8.7379515 4.7523105 56.3159248 -32.8076499 20.3020980 11.8741627
1.8939372 -0.7694465 0.8697443 -0.372131 -0.405644 -0.012034 7.7750733 -7.2945169 7.0380325 54.6870874 -27.0890182 29.0802892 11.8863392
1.8658497 -0.7135133 0.9408468 -0.288137 -0.388658 -0.009269 6.1612657 -4.7087921 7.5572445 50.7521806 -21.1127869 36.0330115 12.3983094
1.8218631 -0.6533905 1.0007889 -0.201152 -0.354103 -0.004693 3.8438782 -2.2371727 6.1443794 45.3339814 -15.2169569 41.1520032 13.2680031
1.7647562 -0.5916719 1.0484327 -0.116233 -0.306266 -0.000296 1.7460272 -0.6505061 3.5787886 39.1880469 -9.8423604 44.5366215 14.4108438
1.6973002 -0.5303644 1.0839178 -0.037151 -0.250791 0.002237 0.3350702 -0.0377918 0.8772170 33.0250519 -5.0364242 46.5983104 15.6620496
1.6218439 -0.4707904 1.1082356 0.033967 -0.192911 0.002013 -0.3734975 -0.0854447 -1.2538725 27.2378897 -0.8594946 47.6938879 16.9508912
1.5401187 -0.4136895 1.1228006 0.096149 -0.136962 -0.001036 -0.6075228 -0.4241298 -2.6414323 22.0146012 2.7648002 48.1846462 18.2081541
1.4531939 -0.3593892 1.1291486 0.148858 -0.085881 -0.006328 -0.5815673 -0.7952034 -3.3271544 17.5026715 5.8900457 48.2919699 19.3540789
1.3614639 -0.3079661 1.1287612 0.192150 -0.041429 -0.013023 -0.4701772 -1.1087271 -3.6230525 13.5729631 8.6062522 48.1814350 20.4242464
1.2645704 -0.2593838 1.1230041 0.225750 -0.004099 -0.020214 -0.3476234 -1.3547716 -3.7369524 10.2497422 10.8660508 47.9004676 21.3700447
1.9628887 -0.7940350 0.7094868 -0.409013 -0.475110 -0.005296 15.2821267 -13.1314459 4.1723027 64.6220725 -29.8585790 10.6685371 10.2850985
1.9641670 -0.7472148 0.7959945 -0.335007 -0.489136 -0.007183 16.2895931 -11.2129710 8.6641654 64.1475456 -24.4184703 20.5578808 10.0128057
1.9441172 -0.6929727 0.8757473 -0.250915 -0.478468 -0.005179 13.8267382 -7.3094503 11.0392103 60.6299573 -18.6860886 28.8595280 10.5443563
1.9050355 -0.6341386 0.9449699 -0.163235 -0.445555 -0.000832 9.4333605 -3.4297633 10.2989853 54.9279877 -12.9556883 35.3161482 11.4126185
1.8501671 -0.5734833 1.0015965 -0.077687 -0.395149 0.003716 4.9651341 -0.8810538 7.1108749 48.0099143 -7.6924160 39.8731019 12.8149649
1.7829410 -0.5131854 1.0452049 0.001531 -0.334062 0.006462 1.7680669 0.0839365 3.2594874 40.8265406 -2.9103517 42.8372816 14.2118446
1.7063417 -0.4546610 1.0765511 0.072423 -0.268576 0.006135 -0.0414908 -0.0138339 -0.0977812 33.9287096 1.2374414 44.6344635 15.8444600
1.6226010 -0.3986647 1.0970369 0.133803 -0.204146 0.002703 -0.7567934 -0.5374486 -2.2809516 27.7297187 4.8637287 45.5965597 17.2006534
1.5331316 -0.3454958 1.1082915 0.185728 -0.144414 -0.003383 -0.9079839 -1.1074166 -3.5202269 22.2518467 7.9895344 46.0613605 18.6749752
1.4385762 -0.2951951 1.1119342 0.228003 -0.091533 -0.011123 -0.7799802 -1.5007333 -3.9323038 17.5872838 10.6845291 46.2252808 19.7943495
1.3388686 -0.2477056 1.1094671 0.260781 -0.046543 -0.019485 -0.6039007 -1.7639095 -4.0263732 13.5820391 12.9987817 46.2447072 20.9938614
2.0154817 -0.7151646 0.7116522 -0.280861 -0.555403 -0.002402 25.9645631 -13.0671387 6.3370268 70.8300980 -20.6881858 10.4823880 8.6219144
2.0061497 -0.6633255 0.7983907 -0.198036 -0.554498 -0.000908 23.8472826 -8.4546500 11.4889912 68.4024471 -15.3981940 19.8249889 8.8803490
1.9746583 -0.6066161 0.8764155 -0.111182 -0.526589 0.003365 17.4722594 -3.5447193 12.7680602 63.1001296 -10.1235697 27.5517709 9.8234561
1.9243517 -0.5478814 0.9424178 -0.026786 -0.476836 0.008322 10.0965801 -0.3484963 10.1722771 56.0317997 -5.1263077 33.4107819 11.2772080
1.8591901 -0.4894164 0.9950460 0.050944 -0.412713 0.011417 4.2476005 0.7016297 5.6478801 48.1768119 -0.5139341 37.5670910 12.9739620
1.7828399 -0.4327138 1.0345322 0.119610 -0.341626 0.011312 0.7437531 0.3075444 1.2778711 40.4484781 3.5179788 40.2697853 14.7259909
1.6981564 -0.3785457 1.0620777 0.178668 -0.270252 0.007607 -0.8410143 -0.6157368 -1.8496667 33.3053014 7.0925789 41.9688794 16.4210681
1.6070461 -0.3271891 1.0793165 0.228024 -0.202962 0.000874 -1.2824308 -1.4740296 -3.6018509 27.0230942 10.1543376 42.9644804 17.9849046
1.5105367 -0.2786521 1.0879687 0.268063 -0.142725 -0.007836 -1.2012594 -2.0464614 -4.3199178 21.5776302 12.8384244 43.5373455 19.3746869
1.4089200 -0.2328449 1.0896720 0.298800 -0.090752 -0.017357 -0.9488800 -2.3229818 -4.3998848 16.9749431 15.1385857 43.8705660 20.6073573
2.0472002 -0.6250889 0.7118838 -0.130587 -0.607773 0.001343 32.5443787 -6.8828406 7.3356432 72.8318179 -11.5972678 9.8571403 7.7246659
2.0260241 -0.5713338 0.7968819 -0.046084 -0.588622 0.005893 25.8579812 -1.8321259 11.6363582 68.7049834 -6.9206138 18.4786468 8.4592989
1.9831246 -0.5154062 0.8716239 0.035695 -0.543624 0.011490 16.1031075 1.3435482 11.0927510 62.1788497 -2.3433416 25.5244797 9.9848576
1.9225879 -0.4596244 0.9335211 0.110129 -0.480205 0.015505 7.5311124 1.9882027 7.2043112 54.3554230 1.9398058 30.8870073 11.6991799
1.8486009 -0.4055161 0.9819138 0.175009 -0.406896 0.016115 1.9155627 0.9292579 2.4311860 46.2346455 5.8189746 34.7093333 13.7220927
1.7646599 -0.3538624 1.0175121 0.229964 -0.331113 0.012667 -0.8055013 -0.6152496 -1.3252039 38.5067041 9.2627780 37.2976911 15.5076296
1.6732611 -0.3049259 1.0417656 0.275372 -0.258459 0.005700 -1.7311184 -1.9406465 -3.6487067 31.5542557 12.2703530 39.0054495 17.3336899
1.5759255 -0.2586888 1.0564017 0.311765 -0.192381 -0.003687 -1.7116725 -2.7096946 -4.5990283 25.5161428 14.9125298 40.1330258 18.7856694
1.4733623 -0.2150333 1.0631533 0.339509 -0.134687 -0.014186 -1.4054304 -3.0685230 -4.8118594 20.3438844 17.1842629 40.9018316 20.2559379
2.0550079 -0.5295965 0.7100746 0.028248 -0.624374 0.004891 30.4295925 1.5068013 6.5075268 70.9917482 -3.5421116 9.0287289 7.8934446
2.0223454 -0.4772344 0.7916181 0.106284 -0.588234 0.011461 20.5072855 3.9341179 8.8413713 65.6875786 0.5000306 16.8367358 9.1709144
1.9694194 -0.4248819 0.8619969 0.176415 -0.530333 0.016873 10.3355644 3.6891268 6.8748646 58.5820375 4.4421845 23.2235543 10.9618444
1.9005181 -0.3740354 0.9193655 0.236438 -0.459134 0.018929 3.0323870 1.6892039 2.8179332 50.6677536 8.0949961 28.0910886 12.9541713
1.8196006 -0.3254640 0.9635909 0.286349 -0.382802 0.016509 -0.8454586 -0.6816880 -1.0466133 42.7707524 11.4062709 31.6680864 14.9338293
1.7297478 -0.2794199 0.9956589 0.326691 -0.307645 0.010055 -2.2474119 -2.5196555 -3.6131069 35.5109879 14.3359229 34.2031145 16.7979104
1.6330428 -0.2358757 1.0171234 0.358597 -0.238065 0.000569 -2.3385659 -3.5568288 -4.8138936 29.0411801 16.9496070 36.0221264 18.4723022
1.5306842 -0.1947014 1.0297242 0.382391 -0.176396 -0.010415 -1.9485035 -3.9524007 -5.0961389 23.4819496 19.2068713 37.2891600 19.9316374
2.0389282 -0.4351267 0.7064635 0.179544 -0.605956 0.007317 20.7092979 6.2407915 4.2977209 66.3053602 3.3679366 8.1602908 9.0590765
1.9964586 -0.3867291 0.7833198 0.245086 -0.557968 0.014315 11.1704046 5.0585988 4.7118300 60.4541308 6.8715141 15.1952444 10.5548350
1.9356251 -0.3396198 0.8487342 0.300118 -0.493706 0.018367 3.3761250 2.1455523 2.2111591 53.3263620 10.2422590 20.9249262 12.5229311
1.8604398 -0.2945160 0.9014565 0.344592 -0.421078 0.017881 -1.0988772 -0.9466020 -1.0099307 45.8486429 13.3670182 25.3973427 14.4208627
1.7743888 -0.2516560 0.9416798 0.379693 -0.347219 0.012840 -2.8867929 -3.3031746 -3.5423799 38.6268676 16.2433288 28.7739084 16.4192345
1.6801055 -0.2110186 0.9705262 0.406594 -0.276972 0.004094 -3.0450630 -4.5644895 -4.8520333 32.0503442 18.8037535 31.2846392 18.0539675
1.5793365 -0.1724881 0.9895833 0.426157 -0.213605 -0.006725 -2.5854016 -5.0206446 -5.2601424 26.2469067 21.0741541 33.1350347 19.6956407
2.0017504 -0.3469133 0.7015461 0.310648 -0.561186 0.008110 9.0271758 5.0478749 1.8521623 59.8868948 9.3360278 7.3227522 10.9101585
1.9516988 -0.3038011 0.7730013 0.361260 -0.508008 0.014203 2.3874426 1.7329649 1.0021112 54.0216756 12.3402187 13.5945292 12.5744089
1.8850488 -0.2623664 0.8331940 0.401194 -0.443667 0.016144 -1.8736663 -1.7456642 -1.2266441 47.3610211 15.2825786 18.7707583 14.4240445
1.8053014 -0.2228035 0.8812633 0.431503 -0.374825 0.013293 -3.6686062 -4.3598989 -3.3782149 40.6275671 18.0269698 22.8869773 16.2609273
1.7154796 -0.1851061 0.9175940 0.453887 -0.307182 0.006164 -3.8230028 -5.7665124 -4.6998087 34.2124160 20.5542988 26.0930565 17.9990868
1.6178841 -0.1492039 0.9433966 0.469229 -0.244480 -0.003737 -3.2440380 -6.1752469 -5.1642616 28.4535219 22.8152918 28.5457648 19.5637019
1.9476923 -0.2679576 0.6958827 0.415589 -0.501995 0.007363 0.1801374 0.1502055 0.0370841 52.8006771 14.4550044 6.5492791 13.0874797
1.8920756 -0.2302810 0.7616322 0.451986 -0.449239 0.011561 -3.0681070 -3.1306895 -1.2978599 47.3761711 17.0656596 12.1944868 14.5681698
1.8211380 -0.1940318 0.8165085 0.478804 -0.389117 0.011295 -4.5448212 -5.6984930 -3.0051513 41.4557553 19.6576561 16.8889006 16.3492181
1.7379244 -0.1591874 0.8598838 0.497506 -0.327059 0.006434 -4.5564281 -7.0388615 -4.2361359 35.5703118 22.1068872 20.6838561 17.9139362
1.6451882 -0.1257515 0.8923112 0.509553 -0.267667 -0.001820 -3.8821743 -7.3860565 -4.8032953 30.0194865 24.3881193 23.6805001 19.5331223
1.8810288 -0.1991310 0.6899386 0.494394 -0.438968 0.005611 -4.4538387 -5.0432185 -0.9296203 45.9074246 18.9139101 5.8478160 15.2754947
1.8212171 -0.1662617 0.7499088 0.518959 -0.390223 0.007588 -5.3515748 -7.1832209 -2.2995776 41.1076182 21.2694670 10.9271901 16.7244486
1.7467637 -0.1342017 0.7993658 0.535553 -0.336553 0.005156 -5.1972693 -8.3497093 -3.4877959 35.9142794 23.6028844 15.1960893 18.2097462
1.6605766 -0.1030131 0.8378793 0.545239 -0.282541 -0.001065 -4.4225479 -8.5477073 -4.1562606 30.8587563 25.8086677 18.6748003 19.6610181
1.8053141 -0.1398942 0.6840093 0.550475 -0.379133 0.003244 -5.8818263 -8.5745743 -1.2516748 39.6897120 22.8358917 5.2908084 17.2906147
1.7418606 -0.1107829 0.7381502 0.565871 -0.335799 0.002946 -5.5501725 -9.4011274 -2.4274816 35.5383533 25.0102616 9.9065269 18.4704356
1.6639409 -0.0817296 0.7818930 0.574608 -0.289171 -0.001112 -4.7659087 -9.4871453 -3.2374286 31.0541789 27.1225801 13.7291568 19.8894046
1.7231801 -0.0890165 0.6782027 0.588328 -0.326055 0.000992 -5.7029897 -10.3222827 -1.2347372 34.1751743 26.2958611 4.7239721 19.1226458
1.6557042 -0.0623906 0.7261572 0.596843 -0.288218 -0.001364 -4.8088693 -9.9771329 -2.1250920 30.6737047 28.4991909 8.9047421 20.2463749
1.6363872 -0.0450480 0.6722855 0.611804 -0.280373 -0.001301 -5.0527904 -11.0512610 -1.0988236 29.3305496 28.7910893 4.2725732 20.6560849
1.6044892 -0.0285250 0.6212299 0.620570 -0.265297 -0.000000 -4.6247262 -10.8467444 0.0000000 28.1665349 30.7564843 -0.0000436 21.2333711
1.6895404 -0.0680031 0.6212299 0.602848 -0.307743 -0.000000 -5.0198658 -9.8601321 -0.0000000 32.4741377 28.0706079 0.0000124 19.6588945
1.7730462 -0.1145574 0.6212299 0.573154 -0.357185 -0.000000 -6.0138025 -9.6760499 -0.0000000 37.3825658 24.5082330 -0.0000343 18.1212536
1.8520023 -0.1691455 0.6212299 0.527033 -0.414661 -0.000000 -5.4482214 -6.9443030 -0.0000000 43.2930131 20.8320377 0.0000276 16.0778033
1.9237742 -0.2329789 0.6212299 0.460149 -0.477682 -0.000000 -2.4161661 -2.3349037 -0.0000000 49.9945474 16.6387210 -0.0000415 14.0154489
1.9850510 -0.3069824 0.6212299 0.368311 -0.541113 -0.000000 4.7724675 3.2613696 0.0000001 57.1753557 11.8313015 0.0000338 11.6911781
2.0317223 -0.3910928 0.6212299 0.249269 -0.595834 -0.000000 16.1503989 6.7973221 0.0000003 64.2044941 6.3030045 -0.0000211 9.6753537
2.0592601 -0.4834251 0.6212299 0.105637 -0.629793 -0.000000 28.4962760 4.8506148 0.0000005 70.0616900 -0.1308947 0.0000198 7.9894057
2.0638348 -0.5797436 0.6212299 -0.052960 -0.631831 -0.000000 35.3606581 -2.8708222 0.0000007 73.6001519 -7.5952278 -0.0000094 7.3676938
2.0438516 -0.6738898 0.6212299 -0.211146 -0.596616 -0.000000 32.6765773 -11.4652758 0.0000007 73.7545406 -16.2690659 0.0000297 7.6886402
2.0009203 -0.7593761 0.6212299 -0.352955 -0.528119 -0.000000 22.5090848 -14.9567604 0.0000005 69.6747703 -25.6541960 -0.0000083 9.1163906
1.9394441 -0.8312965 0.6212299 -0.467569 -0.437397 -0.000000 11.2643754 -11.9801781 0.0000003 61.5592618 -34.4280977 0.0000404 10.9885765
1.8651420 -0.8873144 0.6212299 -0.552140 -0.337939 -0.000000 3.3803405 -5.4936253 0.0000001 50.9937086 -41.1771209 0.0000158 13.1577854
1.7836355 -0.9274545 0.6212299 -0.609162 -0.240478 -0.000000 -0.3661632 0.9216013 -0.0000000 39.7910255 -45.3083378 0.0000678 15.0044454
1.7003364 -0.9531783 0.6212299 -0.644953 -0.150031 -0.000000 -1.1731337 4.9955040 -0.0000001 29.8370765 -49.3225464 0.0000671 16.8294596
1.6424999 -0.9602902 0.5570786 -0.652900 -0.101311 0.004743 -1.3993581 8.9560615 1.0676350 23.3239208 -47.6071908 -6.6945837 17.7526973
1.6587968 -0.9440305 0.4879967 -0.629429 -0.121638 0.009452 -1.1776297 6.1587764 1.6894944 25.5136100 -46.0216101 -14.8846112 17.2568101
1.6657602 -0.9172102 0.4173921 -0.590945 -0.136821 0.013472 -1.0169789 4.5488901 2.0560311 26.5892797 -43.1660715 -22.8553544 17.0492609
1.6614966 -0.8803281 0.3489214 -0.538719 -0.144748 0.015286 -0.8032926 3.1801680 2.1139721 26.7683135 -39.1217074 -30.2544282 16.7516835
1.6452380 -0.8345861 0.2855746 -0.474337 -0.143523 0.014540 -0.6053760 2.1811145 2.0261513 25.7597885 -34.2293346 -36.6295092 16.8218073
1.6171145 -0.7818159 0.2297695 -0.401457 -0.132439 0.011464 -0.4375361 1.4674266 1.8673476 23.8973539 -28.9399015 -41.7329364 16.8974113
1.5779493 -0.7241485 0.1831027 -0.323891 -0.112051 0.007034 -0.3435148 1.0916155 1.9066178 21.3068836 -23.5722572 -45.5019119 17.3304054
1.5289944 -0.6636941 0.1462915 -0.245789 -0.084272 0.002552 -0.2705421 0.8244796 2.0248446 18.3891125 -18.4784971 -48.0768045 17.7338275
1.4716674 -0.6022958 0.1192768 -0.170027 -0.051867 -0.000722 -0.2139085 0.6270689 2.2906349 15.2771950 -13.7837579 -49.6900764 18.4669116
1.4073532 -0.5414135 0.1014210 -0.099509 -0.017865 -0.002085 -0.1450807 0.4015137 2.4644683 12.3213434 -9.5708094 -50.6102406 19.0338287
1.3372991 -0.4821153 0.0917310 -0.035668 0.014978 -0.001309 -0.0791531 0.1837598 2.6637188 9.5334710 -5.8267530 -51.0398030 19.8661244
1.2625985 -0.4251437 0.0890288 0.020189 0.044468 0.001348 -0.0153048 -0.0313152 2.6992701 7.0733298 -2.5591581 -51.1670339 20.4603484
1.1842743 -0.3710227 0.0920704 0.067669 0.069069 0.005356 0.0383459 -0.2313143 2.8499495 4.9091949 0.3244379 -51.1150258 21.2617656
1.1034270 -0.3201669 0.0996034 0.106313 0.087980 0.010032 0.0688183 -0.3482833 2.4747779 3.1930368 2.7548348 -50.9241534 21.7230823
1.0220392 -0.2732892 0.1102254 0.136736 0.100681 0.014777 -0.0064826 0.0326962 -0.1693745 1.4440431 5.9028121 -55.2745873 22.4746166
1.6363872 -0.0450480 0.5701743 0.611804 -0.280373 0.001300 -5.0527859 -11.0512510 1.0988226 29.3308853 28.7909900 -4.2724807 20.6561538
1.6557042 -0.0623906 0.5163025 0.596843 -0.288218 0.001365 -4.8088744 -9.9771434 2.1250942 30.6735632 28.4991583 -8.9049826 20.2462696
1.6639409 -0.0817296 0.4605668 0.574608 -0.289171 0.001111 -4.7659043 -9.4871366 3.2374257 31.0544144 27.1225430 -13.7290164 19.8895246
1.6605766 -0.1030131 0.4045804 0.545240 -0.282541 0.001065 -4.4225529 -8.5477168 4.1562653 30.8586320 25.8085506 -18.6750384 19.6608033
1.6451882 -0.1257515 0.3501486 0.509553 -0.267667 0.001819 -3.8821718 -7.3860517 4.8032922 30.0196586 24.3881573 -23.6803115 19.5332982
1.6178841 -0.1492039 0.2990632 0.469229 -0.244480 0.003737 -3.2440404 -6.1752514 5.1642654 28.4533746 22.8150638 -28.5460600 19.5634297
1.5793365 -0.1724881 0.2528765 0.426157 -0.213605 0.006724 -2.5854022 -5.0206457 5.2601436 26.2471108 21.0743389 -33.1347185 19.6958194
1.5306842 -0.1947014 0.2127356 0.382391 -0.176395 0.010414 -1.9485067 -3.9524072 5.0961473 23.4817735 19.2064780 -37.2895013 19.9313416
1.4733623 -0.2150333 0.1793064 0.339509 -0.134688 0.014184 -1.4054203 -3.0685008 4.8118246 20.3440467 17.1846969 -40.9015067 20.2561704
1.4089200 -0.2328449 0.1527878 0.298800 -0.090751 0.017357 -0.9489033 -2.3230390 4.3999932 16.9748681 15.1379997 -43.8707547 20.6069827
1.3388686 -0.2477057 0.1329927 0.260781 -0.046543 0.019484 -0.6038984 -1.7639027 4.0263577 13.5821696 12.9993695 -46.2444136 20.9941462
1.2645704 -0.2593838 0.1194557 0.225750 -0.004098 0.020214 -0.3475243 -1.3543850 3.7358861 10.2498164 10.8659058 -47.9017214 21.3697657
1.1871309 -0.2677992 0.1115457 0.193429 0.035169 0.019501 -0.1408645 -0.9659796 3.2462823 7.1502346 8.8386729 -49.3343927 21.7545108
1.1070511 -0.2728044 0.1085895 0.163709 0.070204 0.017479 0.0003925 -0.8767008 3.6409543 4.3148015 6.7550775 -49.5882146 22.0607344
1.7231801 -0.0890165 0.5642570 0.588329 -0.326056 -0.000992 -5.7029921 -10.3222870 1.2347377 34.1749394 26.2959574 -4.7239659 19.1225885
1.7418606 -0.1107829 0.5043096 0.565871 -0.335799 -0.002947 -5.5501686 -9.4011208 2.4274799 35.5384551 25.0102801 -9.9063909 18.4705193
1.7467637 -0.1342017 0.4430939 0.535553 -0.336553 -0.005156 -5.1972734 -8.3497158 3.4877986 35.9140974 23.6029330 -15.1961711 18.2096614
1.7379244 -0.1591874 0.3825760 0.497506 -0.327059 -0.006435 -4.5564238 -7.0388547 4.2361318 35.5704211 22.1069790 -20.6836904 17.9141051
1.7154796 -0.1851061 0.3248658 0.453888 -0.307182 -0.006164 -3.8230043 -5.7665146 4.6998105 34.2122950 20.5542785 -26.0931745 17.9989444
1.6801055 -0.2110186 0.2719336 0.406594 -0.276972 -0.004095 -3.0450601 -4.5644849 4.8520286 32.0504537 18.8039233 -31.2844719 18.0542123
1.6330428 -0.2358757 0.2253363 0.358597 -0.238065 -0.000569 -2.3385657 -3.5568285 4.8138931 29.0410272 16.9494785 -36.0223150 18.4721412
1.5759255 -0.2586888 0.1860580 0.311765 -0.192381 0.003686 -1.7116707 -2.7096917 4.5990235 25.5163418 14.9127919 -40.1328267 18.7859121
1.5105367 -0.2786521 0.1544911 0.268064 -0.142724 0.007836 -1.2012603 -2.0464628 4.3199209 21.5773996 12.8380995 -43.5375879 19.3745353
1.4385762 -0.2951951 0.1305255 0.228003 -0.091533 0.011122 -0.7799788 -1.5007305 3.9322967 17.5874312 10.6849287 -46.2251060 19.7946224
1.3614639 -0.3079661 0.1136986 0.192150 -0.041428 0.013023 -0.4701675 -1.1087042 3.6229777 13.5727989 8.6057337 -48.1817148 20.4239999
1.2801366 -0.3167374 0.1033523 0.159900 0.006057 0.013392 -0.2233239 -0.7713508 3.1832632 9.8671920 6.5387528 -49.6202820 20.7999462
1.1946788 -0.3211613 0.0988102 0.131504 0.049345 0.012265 -0.0521791 -0.5459427 2.9105919 6.2876457 4.6150329 -50.4848249 21.4244104
1.8053141 -0.1398942 0.5584504 0.550474 -0.379132 -0.003245 -5.8818245 -8.5745717 1.2516743 39.6898782 22.8358057 -5.2908055 17.2906583
1.8212171 -0.1662617 0.4925510 0.518959 -0.390223 -0.007588 -5.3515783 -7.1832255 2.2995791 41.1075420 21.2694491 -10.9273001 16.7243820
1.8211380 -0.1940318 0.4259512 0.478804 -0.389117 -0.011296 -4.5448181 -5.6984891 3.0051492 41.4558962 19.6576042 -16.8888291 16.3492712
1.8053014 -0.2228035 0.3611964 0.431503 -0.374825 -0.013293 -3.6686093 -4.3599026 3.3782177 40.6274542 18.0268915 -22.8871217 16.2608068
1.7743888 -0.2516560 0.3007800 0.379693 -0.347219 -0.012841 -2.8867922 -3.3031737 3.5423789 38.6269755 16.2433496 -28.7737995 16.4193232
1.7297478 -0.2794199 0.2468009 0.326692 -0.307645 -0.010055 -2.2474150 -2.5196589 3.6131118 35.5108841 14.3357747 -34.2032288 16.7977114
1.6732611 -0.3049259 0.2006942 0.275371 -0.258459 -0.005701 -1.7311184 -1.9406464 3.6487066 31.5543555 12.2704764 -39.0053260 17.3338300
1.6070461 -0.3271891 0.1631433 0.228025 -0.202962 -0.000874 -1.2824331 -1.4740322 3.6018572 27.0229347 10.1541518 -42.9645744 17.9846746
1.5331316 -0.3454958 0.1341683 0.185727 -0.144414 0.003382 -0.9079833 -1.1074159 3.5202246 22.2520869 7.9897972 -46.0612121 18.6750972
1.4531939 -0.3593892 0.1133111 0.148859 -0.085881 0.006327 -0.5815682 -0.7952047 3.3271598 17.5024439 5.8897824 -48.2920497 19.3538805
1.3683469 -0.3685676 0.0998515 0.117180 -0.029669 0.007617 -0.3240085 -0.5553312 3.1387309 12.9346251 3.8548271 -49.8074058 20.0494007
1.2789292 -0.3726833 0.0929990 0.090131 0.022315 0.007192 -0.1180235 -0.3599434 2.8816920 8.7513882 2.0161860 -50.7026852 20.6464959
1.8810288 -0.1991310 0.5525212 0.494394 -0.438969 -0.005612 -4.4538392 -5.0432190 0.9296203 45.9073143 18.9139907 -5.8477937 15.2754619
1.8920757 -0.2302810 0.4808276 0.451985 -0.449239 -0.011562 -3.0681056 -3.1306880 1.2978592 47.3762207 17.0656682 -12.1944327 14.5682296
1.8850488 -0.2623664 0.4092658 0.401194 -0.443667 -0.016145 -1.8736667 -1.7456645 1.2266443 47.3609316 15.2826418 -18.7707825 14.4240022
1.8604398 -0.2945160 0.3410033 0.344592 -0.421078 -0.017882 -1.0988738 -0.9465990 1.0099275 45.8487495 13.3670603 -25.3972532 14.4209592
1.8196006 -0.3254640 0.2788689 0.286350 -0.382802 -0.016509 -0.8454585 -0.6816879 1.0466132 42.7706465 11.4062742 -31.6681687 14.9337808
1.7646599 -0.3538624 0.2249477 0.229963 -0.331113 -0.012667 -0.8054977 -0.6152468 1.3251979 38.5068399 9.2628650 -37.2976148 15.5077736
1.6981564 -0.3785457 0.1803821 0.178668 -0.270252 -0.007607 -0.8410151 -0.6157374 1.8496686 33.3052018 7.0924780 -41.9689599 16.4209734
1.6226011 -0.3986648 0.1454229 0.133803 -0.204146 -0.002704 -0.7567907 -0.5374467 2.2809434 27.7298401 4.8638156 -45.5965331 17.2008578
1.5401187 -0.4136895 0.1196591 0.096150 -0.136962 0.001036 -0.6075235 -0.4241302 2.6414355 22.0144157 2.7646197 -48.1847133 18.2080430
1.4522240 -0.4233070 0.1022910 0.064928 -0.071652 0.002961 -0.3929381 -0.2752028 2.7321896 16.6331926 0.7806457 -49.8637832 18.9378522
1.3597034 -0.4272577 0.0923815 0.039958 -0.010651 0.003012 -0.1941720 -0.1443844 2.7830222 11.5642736 -0.9852683 -50.8001214 19.8458369
1.9476923 -0.2679576 0.5465771 0.415588 -0.501995 -0.007363 0.1801377 0.1502057 -0.0370842 52.8007509 14.4549334 -6.5492715 13.0874981
1.9516988 -0.3038011 0.4694585 0.361260 -0.508008 -0.014203 2.3874421 1.7329645 -1.0021109 54.0216383 12.3402055 -13.5945770 12.5743604
1.9356251 -0.3396198 0.3937256 0.300118 -0.493706 -0.018367 3.3761263 2.1455531 -2.2111598 53.3264084 10.2422062 -20.9249186 12.5229620
1.9005181 -0.3740354 0.3230943 0.236438 -0.459134 -0.018929 3.0323842 1.6892023 -2.8179305 50.6676754 8.0949659 -28.0911327 12.9540824
1.8486009 -0.4055161 0.2605460 0.175009 -0.406896 -0.016116 1.9155645 0.9292587 -2.4311881 46.2347206 5.8189710 -34.7092821 13.7221228
1.7828399 -0.4327138 0.2079276 0.119611 -0.341626 -0.011313 0.7437504 0.3075433 -1.2778665 40.4483370 3.5179329 -40.2698294 14.7258780
1.7063417 -0.4546610 0.1659087 0.072423 -0.268576 -0.006136 -0.0414898 -0.0138335 0.0977788 33.9288293 1.2375514 -44.6344062 15.8445092