# volRat = 0.650000
# viscRat = 5.000000
# alpha = 1.000000
# shRate = 2.750000
# tnum = 4800
# time = 4.184182
VARIABLES = X, Y, Z, U, V, W, F_B0, F_B1, F_B2, F_0, F_1, F_2, T
ZONE N=2562 E=5120 F=FEPOINT ET=TRIANGLE
1.6624422 0.4618242 0.6212299 0.003460 -0.000886 0.000001 5.0077955 23.6458910 0.0000009 30.4270814 71.6210020 -0.0004917 25.8274755
-1.6624422 0.4618241 0.6212299 -0.003460 -0.000885 0.000001 -5.0077791 23.6458925 0.0000018 -30.4270678 71.6210030 -0.0004910 25.8274762
1.6624422 -0.4618237 0.6212299 0.003443 0.000874 -0.000000 5.0074962 -23.6445779 0.0000018 30.4363747 -71.6135108 -0.0000217 25.8135674
-1.6624422 -0.4618237 0.6212299 -0.003443 0.000874 -0.000000 -5.0075125 -23.6445766 0.0000009 -30.4363911 -71.6135101 -0.0000225 25.8135690
0.9862914 0.0000000 1.1298772 -0.002945 -0.000030 -0.000459 -2.3065819 -0.0000732 22.8879595 -2.6518662 0.0176941 77.5192248 29.0612767
0.9862914 0.0000000 0.1125828 -0.002944 -0.000026 0.000457 -2.3064705 -0.0000404 -22.8869265 -2.6522174 0.0143980 -77.5181800 29.0608944
-0.9862914 0.0000000 1.1298772 0.002945 -0.000030 -0.000459 2.3065818 0.0000009 22.8879586 2.6518662 0.0177357 77.5192247 29.0612773
-0.9862914 0.0000000 0.1125828 0.002944 -0.000026 0.000457 2.3064702 -0.0000251 -22.8869238 2.6522173 0.0144073 -77.5181775 29.0608950
0.0000000 0.3455621 0.8380291 -0.000000 0.007601 0.004355 0.0000256 -91.2188572 -51.4927780 0.0000238 -24.4958066 -8.8304210 32.8836271
0.0000000 -0.3455570 0.8380262 -0.000000 0.002767 -0.001141 0.0000032 80.7171890 -45.5737430 0.0000073 14.4891603 -3.4530104 32.7583509
0.0000000 0.3455618 0.4044309 -0.000000 0.007089 -0.004017 0.0000008 -89.1326478 50.3115141 0.0000005 -22.4361681 7.6433812 32.8974771
-0.0000000 -0.3455570 0.4044335 -0.000000 0.002500 0.000988 0.0000036 81.4329533 45.9785608 0.0000077 15.1889575 3.8593846 32.7573126
1.6850519 0.4550883 0.6750287 0.004957 -0.001090 -0.000134 -3.6995797 -15.8835177 -1.5242839 28.3265924 50.9035719 6.0857571 25.6121832
1.7014347 0.4419916 0.7336183 0.004765 -0.001134 -0.000176 -2.5586776 -9.9936539 -2.1889734 30.9668143 53.3781052 14.3280637 25.0875866
1.7087664 0.4226371 0.7946331 0.004331 -0.001055 -0.000257 -2.4376038 -8.8342485 -3.1514359 31.7482617 51.3259147 22.3713264 24.8868755
1.7052068 0.3973571 0.8554116 0.003113 -0.000758 -0.000192 -2.1843884 -7.5058312 -3.8600683 31.8120350 48.4860724 30.4336671 24.5321527
1.6898681 0.3668181 0.9136645 0.002003 -0.000454 -0.000142 -1.8802328 -6.2754489 -4.3724784 30.7014311 44.7615314 38.0614313 24.5615952
1.6626362 0.3320786 0.9673072 0.000540 -0.000052 -0.000088 -1.4867611 -4.9558930 -4.5169408 28.7347516 40.4674250 45.0127254 24.5010899
1.6240659 0.2944557 1.0146781 -0.000677 0.000251 -0.000040 -1.1101226 -3.8229845 -4.4681354 25.8843414 35.7758774 50.9787479 24.8172528
1.5752194 0.2553519 1.0546732 -0.001884 0.000512 -0.000025 -0.7668055 -2.8538090 -4.2369318 22.5252143 30.8753848 55.8565605 25.0390956
1.5174642 0.2160808 1.0867857 -0.002607 0.000613 -0.000046 -0.4883936 -2.1035044 -3.9639843 18.7789876 26.0326728 59.6443924 25.6071394
1.4522822 0.1777480 1.1110433 -0.003182 0.000642 -0.000094 -0.2625267 -1.4873234 -3.5859005 15.0441515 21.3544490 62.4902344 25.9892957
1.3811286 0.1411952 1.1278812 -0.003307 0.000565 -0.000151 -0.1001576 -1.0664337 -3.3510214 11.3593694 16.9347299 64.4323683 26.6820699
1.3053653 0.1070066 1.1380091 -0.003342 0.000435 -0.000204 0.0224131 -0.7128838 -3.0203477 7.9942205 12.8594959 65.7910165 27.1155588
1.2262917 0.0755567 1.1422918 -0.003119 0.000305 -0.000243 0.1177467 -0.4955791 -3.0093698 4.9177080 9.0823631 66.4569680 27.8150958
1.1452507 0.0470686 1.1416890 -0.002965 0.000169 -0.000273 0.1515867 -0.2358502 -2.3125015 2.2833066 5.7279133 67.3906727 28.1899591
1.0643752 0.0218257 1.1372536 -0.002726 -0.000016 -0.000323 0.5462011 -0.2801023 -6.2490006 0.0673413 2.5100070 65.8298177 28.8505412
1.7734859 -0.4296333 0.6835385 0.004734 0.001419 -0.000363 -3.1951036 9.5752301 -1.1943587 37.5277531 -52.5327430 8.1920303 23.9467468
1.7904583 -0.4111122 0.7484214 0.004476 0.001528 -0.000039 -3.0367617 8.2075135 -2.2112516 39.7438696 -51.3571103 16.9070285 23.5001770
1.7948795 -0.3864251 0.8142195 0.003596 0.001364 0.000118 -2.7675706 6.9015008 -3.0158476 40.5845161 -48.5290987 25.9630593 23.1145837
1.7861267 -0.3559089 0.8785003 0.002388 0.001063 0.000283 -2.3471142 5.5103490 -3.4927595 39.9957291 -44.7782488 34.7081659 22.9674832
1.7639594 -0.3205528 0.9387867 0.000836 0.000625 0.000439 -1.8835634 4.2482428 -3.6931567 38.0978338 -40.2235653 42.7795896 22.9664965
1.7288832 -0.2817677 0.9929124 -0.000653 0.000201 0.000521 -1.4519916 3.2151490 -3.7214903 34.9541181 -35.1607346 49.7292744 23.2193201
1.6820605 -0.2411470 1.0393201 -0.001975 -0.000193 0.000504 -1.0774634 2.4010655 -3.6508462 30.9635677 -29.8436741 55.4477678 23.6179792
1.6250785 -0.2002263 1.0771845 -0.002941 -0.000407 0.000443 -0.7608555 1.7601189 -3.5127013 26.4317123 -24.5784055 59.8058583 24.1782139
1.5596815 -0.1603038 1.1063658 -0.003592 -0.000557 0.000308 -0.5066515 1.2725178 -3.3731884 21.7510791 -19.4880238 62.9843307 24.8202134
1.4875556 -0.1223576 1.1272598 -0.003794 -0.000471 0.000178 -0.2963310 0.8758641 -3.1723711 17.1455429 -14.8044112 65.0912725 25.5342188
1.4101935 -0.0870442 1.1406076 -0.003811 -0.000422 0.000027 -0.1347082 0.5764836 -3.0143538 12.8670498 -10.4475045 66.4115452 26.2366678
1.3288284 -0.0547542 1.1473377 -0.003586 -0.000233 -0.000090 -0.0084213 0.3317459 -2.7983318 8.9809500 -6.5800588 67.1155773 26.9442623
1.2443696 -0.0256845 1.1484350 -0.003309 -0.000155 -0.000192 0.0797780 0.1364128 -2.4654993 5.5537392 -3.0692506 67.5768643 27.6221613
1.1570894 0.0000000 1.1448533 -0.002959 0.000014 -0.000241 0.1602694 0.0000017 -2.5799531 2.6043928 -0.0099501 67.2419962 28.2330316
1.8582165 -0.3954819 0.6898660 0.004681 0.002030 0.000174 -3.1496879 6.7279119 -1.0194931 47.5097267 -50.7985373 9.4129155 22.1283693
1.8740669 -0.3708653 0.7608520 0.003859 0.001901 0.000298 -2.6151048 4.9944733 -1.6513556 49.9169522 -48.0399777 19.5246127 21.4024454
1.8742737 -0.3402282 0.8315598 0.002865 0.001795 0.000713 -2.0114764 3.5066162 -1.9085700 50.3282868 -44.3117397 29.5319488 21.2106895
1.8589181 -0.3042462 0.8991484 0.001155 0.001263 0.000989 -1.4391354 2.3284535 -1.8744171 48.9309739 -39.5265033 39.0277721 21.0350420
1.8285486 -0.2643097 0.9609180 -0.000348 0.000828 0.001145 -1.0899231 1.6606155 -1.8805167 45.6292404 -34.1245684 47.3248508 21.3898596
1.7844609 -0.2221712 1.0147512 -0.001996 0.000246 0.001179 -0.8500006 1.2353649 -1.9263001 41.0719775 -28.3702812 54.1852857 21.7434449
1.7285174 -0.1795953 1.0593831 -0.003114 -0.000068 0.001084 -0.7342714 1.0292991 -2.2077400 35.5508061 -22.6435876 59.3710784 22.5472123
1.6628123 -0.1380955 1.0944242 -0.003987 -0.000306 0.000901 -0.5912986 0.8064174 -2.4259996 29.7696688 -17.1698084 63.0680188 23.2318312
1.5893526 -0.0987995 1.1201877 -0.004251 -0.000297 0.000644 -0.4544094 0.6057846 -2.6829113 23.9797094 -12.1462790 65.4392500 24.2300174
1.5098408 -0.0624430 1.1374495 -0.004374 -0.000282 0.000387 -0.2887065 0.3746841 -2.7148767 18.6210689 -7.5737824 66.8399443 24.9893267
1.4255382 -0.0294399 1.1472135 -0.004046 -0.000086 0.000147 -0.1444606 0.1752899 -2.7458965 13.6777186 -3.5748638 67.4828619 26.0079734
1.3371241 0.0000000 1.1505450 -0.003830 -0.000009 -0.000048 -0.0170536 0.0000013 -2.5292303 9.3912523 0.0071752 67.7015661 26.6761806
1.2443696 0.0256846 1.1484351 -0.003318 0.000145 -0.000191 0.0797888 -0.1364286 -2.4658317 5.5604597 3.0722930 67.5770229 27.6266155
1.9384939 -0.3504288 0.6956695 0.004026 0.002387 0.000300 -1.3271645 2.0267179 -0.3796566 58.8814240 -46.7748108 10.7779764 19.9847792
1.9506844 -0.3193816 0.7721135 0.003069 0.002310 0.000916 -0.0987295 0.1328941 -0.0555177 61.1434662 -43.0269926 22.0527147 19.4297434
1.9446259 -0.2827022 0.8470378 0.001641 0.001909 0.001324 0.7711294 -0.9287715 0.6568329 60.7698935 -38.0851478 33.1453053 19.1815685
1.9208899 -0.2416470 0.9170281 -0.000051 0.001427 0.001743 0.9887937 -1.0753482 1.1653770 57.7982608 -32.3804841 43.0824821 19.3799854
1.8808848 -0.1980614 0.9792151 -0.001780 0.000782 0.001885 0.6872937 -0.6766734 1.0816007 52.7722702 -26.1967756 51.4464684 19.9004771
1.8267887 -0.1539293 1.0316987 -0.003194 0.000302 0.001837 0.1730400 -0.1531533 0.3605146 46.2643040 -20.0305069 57.8044748 20.7350304
1.7611485 -0.1109913 1.0736820 -0.004174 -0.000074 0.001581 -0.2243734 0.1741024 -0.6251687 39.1569579 -14.1588694 62.3301125 21.7130600
1.6864347 -0.0705405 1.1053097 -0.004614 -0.000152 0.001223 -0.4027192 0.2559929 -1.5442253 31.9874250 -8.8469459 65.1796389 22.8152146
1.6047179 -0.0333967 1.1273584 -0.004675 -0.000157 0.000827 -0.4008898 0.1680539 -2.2350238 25.2163965 -4.0969160 66.7671274 23.9136661
1.5174873 0.0000000 1.1409306 -0.004452 0.000006 0.000457 -0.2855822 0.0000013 -2.5771920 19.1004124 -0.0048671 67.4302423 24.9813713
1.4255382 0.0294399 1.1472135 -0.004034 0.000082 0.000148 -0.1444748 -0.1753044 -2.7461663 13.6714566 3.5735814 67.4824465 26.0020520
1.3288284 0.0547543 1.1473377 -0.003591 0.000253 -0.000093 -0.0084217 -0.3317544 -2.7984280 8.9821069 6.5642054 67.1177289 26.9441533
2.0114041 -0.2929173 0.7010991 0.003124 0.002589 0.000625 3.8186765 -4.0858720 0.9893066 71.1494747 -40.6076827 12.1066355 17.7238878
2.0173274 -0.2554637 0.7821715 0.001950 0.002288 0.001302 5.7870014 -5.3125588 2.9769481 72.6851852 -35.5674380 24.6099341 17.1162024
2.0027113 -0.2133535 0.8601578 0.000410 0.001897 0.002029 6.0535950 -4.7807935 4.7629168 70.6802282 -29.6112815 36.3483217 17.2751399
1.9688148 -0.1684693 0.9311991 -0.001383 0.001152 0.002405 4.8795071 -3.2804831 5.3636704 65.6418919 -23.0788901 46.5435285 17.6953531
1.9180329 -0.1229840 0.9924759 -0.002907 0.000664 0.002511 2.9531274 -1.6353640 4.3776488 58.3205489 -16.5878848 54.5351020 18.7449705
1.8534129 -0.0788645 1.0425281 -0.004149 0.000151 0.002320 1.2719613 -0.5340081 2.5228060 49.8618083 -10.3806456 60.2547000 19.8286110
1.7780256 -0.0375700 1.0811518 -0.004695 0.000065 0.001869 0.1679983 -0.0417813 0.4510103 41.1064335 -4.8674707 63.9187702 21.2730484
1.6944893 0.0000000 1.1090381 -0.004957 -0.000005 0.001371 -0.3002298 0.0000005 -1.1260725 32.8078726 0.0040014 65.9371474 22.4840314
1.6047179 0.0333967 1.1273584 -0.004693 0.000150 0.000830 -0.4008661 -0.1680418 -2.2348917 25.2245736 4.0981993 66.7661907 23.9157824
1.5098408 0.0624430 1.1374496 -0.004368 0.000274 0.000387 -0.2887019 -0.3746755 -2.7148334 18.6189758 7.5821208 66.8390614 24.9919074
1.4101935 0.0870443 1.1406077 -0.003823 0.000407 0.000029 -0.1346968 -0.5764313 -3.0140962 12.8734925 10.4543463 66.4103645 26.2412921
2.0728537 -0.2222301 0.7058615 0.002052 0.002414 0.000856 13.1669722 -9.3169847 3.1683693 82.9815083 -31.6751302 13.3514986 15.4669152
2.0699094 -0.1791758 0.7903808 0.000768 0.001943 0.001847 14.5778708 -8.3479901 7.0417280 82.8572469 -25.5157425 26.6653934 15.2491632
2.0446556 -0.1332176 0.8698994 -0.000758 0.001341 0.002534 12.6409853 -5.6647186 9.4398517 78.6083439 -18.8121116 38.8242631 15.6802217
1.9993438 -0.0866811 0.9404226 -0.002374 0.000746 0.002957 8.6613178 -2.7851364 9.1361623 71.0463227 -12.0654283 48.7998553 16.7174122
1.9373888 -0.0417372 0.9994901 -0.003627 0.000169 0.002863 4.6060435 -0.8236911 6.6295066 61.4333742 -5.6433777 56.2272386 18.0949546
1.8625136 0.0000000 1.0462627 -0.004404 0.000006 0.002461 1.7296816 -0.0000016 3.3754793 51.1507838 -0.0039438 61.1298157 19.6732225
1.7780256 0.0375701 1.0811518 -0.004679 -0.000068 0.001865 0.1679700 0.0417739 0.4509341 41.0999868 4.8674845 63.9205947 21.2707732
1.6864348 0.0705406 1.1053098 -0.004618 0.000166 0.001222 -0.4027280 -0.2559970 -1.5442593 31.9884652 8.8374629 65.1808481 22.8145551
1.5893527 0.0987996 1.1201878 -0.004232 0.000293 0.000643 -0.4544269 -0.6058053 -2.6830144 23.9717605 12.1456734 65.4401389 24.2269517
1.4875556 0.1223577 1.1272599 -0.003806 0.000486 0.000174 -0.2963354 -0.8758738 -3.1724177 17.1499049 14.7926796 65.0943902 25.5303271
2.1179501 -0.1393278 0.7094844 0.001018 0.001736 0.001104 24.8566086 -10.0294023 5.6955211 92.4599839 -20.1388283 14.2513338 13.5661390
2.1039365 -0.0925715 0.7958443 -0.000116 0.001123 0.002123 23.4409466 -6.4520321 10.9062937 89.9734812 -13.3267109 28.0547133 13.7116129
2.0667775 -0.0453497 0.8751407 -0.001470 0.000504 0.002869 17.4308260 -2.5328494 12.6838228 83.0211710 -6.4619947 40.1164321 14.7935678
2.0098552 0.0000001 0.9436377 -0.002711 -0.000006 0.003095 10.3314631 -0.0000057 10.7501241 72.9836640 0.0036074 49.6294253 16.1983130
1.9373888 0.0417373 0.9994902 -0.003641 -0.000174 0.002873 4.6060635 0.8236882 6.6295354 61.4390549 5.6441327 56.2235100 18.0952201
1.8534129 0.0788645 1.0425282 -0.004146 -0.000159 0.002319 1.2719950 0.5340199 2.5228728 49.8603894 10.3870864 60.2545925 19.8304851
1.7611485 0.1109914 1.0736820 -0.004189 0.000064 0.001589 -0.2243605 -0.1740918 -0.6251328 39.1631486 14.1616327 62.3271979 21.7144976
1.6628123 0.1380955 1.0944244 -0.003983 0.000299 0.000901 -0.5912718 -0.8063785 -2.4258898 29.7683082 17.1766903 63.0668081 23.2343637
1.5596816 0.1603039 1.1063660 -0.003605 0.000546 0.000314 -0.5066547 -1.2725221 -3.3732089 21.7570952 19.4921240 62.9813508 24.8232786
2.1419889 -0.0475374 0.7114628 0.000392 0.000624 0.001215 33.4026039 -4.3800632 7.4693162 97.6666236 -6.8861140 14.7188234 12.4644737
2.1157538 0.0000001 0.7977711 -0.000482 0.000006 0.002289 27.1479920 -0.0000108 12.4747124 92.4703196 -0.0035325 28.4910524 13.2708516
2.0667775 0.0453499 0.8751407 -0.001460 -0.000507 0.002856 17.4308155 2.5328317 12.6838154 83.0174385 6.4621422 40.1211440 14.7927477
1.9993438 0.0866813 0.9404227 -0.002377 -0.000730 0.002956 8.6612936 2.7851187 9.1361370 71.0478234 12.0569730 48.8004973 16.7167516
1.9180330 0.1229842 0.9924760 -0.002891 -0.000668 0.002502 2.9531096 1.6353498 4.3776226 58.3146425 16.5883606 54.5384916 18.7440810
1.8267887 0.1539294 1.0316988 -0.003204 -0.000288 0.001836 0.1730089 0.1531253 0.3604498 46.2679215 20.0219320 57.8058367 20.7322756
1.7285174 0.1795954 1.0593832 -0.003094 0.000068 0.001077 -0.7342817 -1.0293114 -2.2077712 35.5431900 22.6421132 59.3740368 22.5456207
1.6250785 0.2002264 1.0771847 -0.002952 0.000417 0.000440 -0.7608680 -1.7601438 -3.5127584 26.4357346 24.5700934 59.8088551 24.1747100
2.1419889 0.0475376 0.7114628 0.000389 -0.000628 0.001231 33.4026195 4.3800410 7.4693197 97.6678195 6.8865604 14.7133535 12.4641516
2.1039366 0.0925716 0.7958443 -0.000115 -0.001132 0.002123 23.4410283 6.4520356 10.9063321 89.9726705 13.3326479 28.0546408 13.7131691
2.0446557 0.1332177 0.8698995 -0.000765 -0.001348 0.002548 12.6409959 5.6647110 9.4398601 78.6111974 18.8139804 38.8190385 15.6804066
1.9688149 0.1684694 0.9311992 -0.001380 -0.001161 0.002404 4.8796056 3.2805433 5.3637791 65.6401814 23.0852165 46.5430915 17.6976593
1.8808849 0.1980616 0.9792152 -0.001790 -0.000788 0.001897 0.6872836 0.6766623 1.0815850 52.7765733 26.1981392 51.4421129 19.9008503
1.7844609 0.2221713 1.0147514 -0.001989 -0.000256 0.001178 -0.8499286 -1.2352582 -1.9261370 41.0687671 28.3775546 54.1840388 21.7484230
1.6820606 0.2411472 1.0393203 -0.001990 0.000185 0.000516 -1.0774883 -2.4011169 -3.6509304 30.9701280 29.8461007 55.4427906 23.6177234
2.1179502 0.1393280 0.7094845 0.001024 -0.001742 0.001090 24.8566059 10.0293822 5.6955209 92.4580488 20.1397949 14.2567533 13.5658370
2.0699095 0.1791760 0.7903808 0.000761 -0.001928 0.001847 14.5778180 8.3479469 7.0417030 82.8604392 25.5077904 26.6660395 15.2469453
2.0027114 0.2133537 0.8601579 0.000421 -0.001898 0.002017 6.0535807 4.7807757 4.7629060 70.6764076 29.6106932 36.3534058 17.2744942
1.9208900 0.2416472 0.9170283 -0.000061 -0.001415 0.001743 0.9887331 1.0752810 1.1653057 57.8024404 32.3733925 43.0837399 19.3773949
1.8285487 0.2643099 0.9609182 -0.000333 -0.000829 0.001136 -1.0899341 -1.6606303 -1.8805359 45.6238344 34.1237024 47.3290164 21.3878948
1.7288833 0.2817679 0.9929126 -0.000665 -0.000190 0.000519 -1.4520261 -3.2152210 -3.7215787 34.9592244 35.1527665 49.7325705 23.2151384
2.0728538 0.2222303 0.7058616 0.002052 -0.002418 0.000870 13.1669714 9.3169728 3.1683694 82.9820202 31.6756513 13.3458497 15.4667066
2.0173275 0.2554640 0.7821716 0.001956 -0.002301 0.001303 5.7871749 5.3127123 2.9770377 72.6819737 35.5746763 24.6091217 17.1206330
1.9446261 0.2827025 0.8470379 0.001636 -0.001912 0.001338 0.7711055 0.9287417 0.6568127 60.7723088 38.0857991 33.1396236 19.1803307
1.8589182 0.3042465 0.8991486 0.001162 -0.001273 0.000987 -1.4390054 -2.3282407 -1.8742480 48.9272389 39.5329002 39.0271104 21.0411815
1.7639595 0.3205531 0.9387869 0.000827 -0.000630 0.000455 -1.8836010 -4.2483228 -3.6932306 38.1018142 40.2250403 42.7731322 22.9660571
2.0114043 0.2929176 0.7010991 0.003130 -0.002591 0.000611 3.8186509 4.0858408 0.9893001 71.1479283 40.6072656 12.1124141 17.7222237
1.9506845 0.3193819 0.7721136 0.003056 -0.002296 0.000914 -0.0988250 -0.1330225 -0.0555714 61.1495364 43.0194944 22.0543422 19.4263021
1.8742738 0.3402285 0.8315600 0.002878 -0.001799 0.000704 -2.0115067 -3.5066660 -1.9085990 50.3236969 44.3120884 29.5367706 21.2099216
1.7861268 0.3559092 0.8785004 0.002373 -0.001051 0.000281 -2.3471762 -5.5104892 -3.4928520 40.0025905 44.7711306 34.7108013 22.9618490
1.9384940 0.3504291 0.6956696 0.004030 -0.002391 0.000313 -1.3271988 -2.0267687 -0.3796665 58.8803655 46.7756511 10.7718454 19.9842225
1.8740671 0.3708656 0.7608520 0.003867 -0.001914 0.000300 -2.6149215 -4.9941192 -1.6512401 49.9125413 48.0466035 19.5234279 21.4091954
1.7948796 0.3864255 0.8142196 0.003590 -0.001364 0.000131 -2.7676084 -6.9015889 -3.0158889 40.5874199 48.5285508 25.9568222 23.1127185
1.8582166 0.3954823 0.6898660 0.004688 -0.002033 0.000164 -3.1497353 -6.7280081 -1.0195086 47.5078053 50.7983985 9.4187666 22.1264873
1.7904584 0.4111126 0.7484215 0.004464 -0.001518 -0.000041 -3.0368609 -8.2077749 -2.2113240 39.7505846 51.3510725 16.9085844 23.4956990
1.7734860 0.4296337 0.6835385 0.004733 -0.001417 -0.000355 -3.1951420 -9.5753372 -1.1943730 37.5294002 52.5313120 8.1864399 23.9429606
1.7429491 0.4428579 0.6212299 0.004494 -0.001233 -0.000000 -3.1195790 -10.7896113 0.0000014 34.5761862 54.3816614 -0.0002455 24.6665927
1.8259266 0.4144424 0.6212300 0.004721 -0.001774 0.000001 -3.1679700 -7.7942074 0.0000009 43.5052306 52.3763027 -0.0002888 22.7813160
1.9078561 0.3755438 0.6212300 0.004353 -0.002202 -0.000001 -2.4691363 -4.3790738 0.0000004 54.2578913 49.3232098 0.0000074 20.9251710
1.9848654 0.3246140 0.6212300 0.003743 -0.002573 0.000000 1.0906976 1.3779197 -0.0000001 66.3007996 44.3491823 -0.0000787 18.5832723
2.0529614 0.2604845 0.6212300 0.002761 -0.002558 -0.000000 8.8864743 7.7043745 -0.0000004 78.8545177 36.7862931 -0.0000327 16.3384028
2.1073177 0.1831833 0.6212300 0.001733 -0.002156 -0.000000 20.7968557 11.2872581 -0.0000003 90.0414120 26.4207260 -0.0000436 14.0734843
2.1427759 0.0948129 0.6212300 0.000909 -0.001247 -0.000000 32.5298733 8.5017703 0.0000000 97.7042423 13.7589017 0.0000606 12.5742676
2.1551442 0.0000001 0.6212300 0.000585 -0.000006 0.000000 37.6680259 -0.0000131 0.0000002 100.4249611 0.0032578 -0.0001075 11.8786309
2.1427759 -0.0948127 0.6212300 0.000913 0.001263 -0.000000 32.5298939 -8.5017991 -0.0000000 97.7026987 -13.7665832 0.0000728 12.5747907
2.1073176 -0.1831831 0.6212300 0.001731 0.002146 -0.000000 20.7966977 -11.2871885 -0.0000003 90.0429231 -26.4148855 -0.0000273 14.0714508
2.0529613 -0.2604843 0.6212300 0.002769 0.002571 -0.000000 8.8865558 -7.7044532 -0.0000004 78.8504732 -36.7930154 -0.0000165 16.3405275
1.9848652 -0.3246137 0.6212300 0.003737 0.002561 -0.000000 1.0904904 -1.3776591 -0.0000001 66.3045252 -44.3426129 -0.0000272 18.5775684
1.9078559 -0.3755435 0.6212300 0.004371 0.002216 -0.000001 -2.4690201 4.3788712 0.0000004 54.2490392 -49.3308930 0.0001268 20.9302722
1.8259265 -0.4144420 0.6212300 0.004703 0.001759 0.000000 -3.1681827 7.7947361 0.0000009 43.5141011 -52.3681678 -0.0002659 22.7706505
1.7429489 -0.4428575 0.6212299 0.004518 0.001245 -0.000001 -3.1194256 10.7890899 0.0000014 34.5637457 -54.3893357 0.0002218 24.6727977
1.6850518 -0.4550878 0.5674312 0.004942 0.001084 0.000129 -3.6995315 15.8833243 1.5242685 28.3331009 -50.9014520 -6.0811794 25.6137333
1.7014346 -0.4419912 0.5088416 0.004755 0.001122 0.000176 -2.5588366 9.9942827 2.1891120 30.9724902 -53.3713551 -14.3293411 25.0757455
1.7087663 -0.4226367 0.4478270 0.004316 0.001051 0.000242 -2.4375645 8.8341129 3.1513872 31.7539110 -51.3255754 -22.3647396 24.8894790
1.7052067 -0.3973567 0.3870485 0.003104 0.000747 0.000191 -2.1845052 7.5062385 3.8602763 31.8164130 -48.4791970 -30.4357520 24.5217560
1.6898680 -0.3668177 0.3287956 0.001982 0.000452 0.000129 -1.8802163 6.2753992 4.3724413 30.7091421 -44.7619513 -38.0557320 24.5628870
1.6626362 -0.3320782 0.2751529 0.000534 0.000044 0.000085 -1.4868332 4.9561382 4.5171608 28.7376839 -40.4608132 -45.0146472 24.4932838
1.6240659 -0.2944555 0.2277821 -0.000700 -0.000252 0.000032 -1.1101283 3.8230089 4.4681596 25.8925039 -35.7771887 -50.9745350 24.8192629
1.5752194 -0.2553517 0.1877870 -0.001894 -0.000519 0.000024 -0.7668349 2.8539230 4.2370956 22.5290912 -30.8677825 -55.8590309 25.0311563
1.5174642 -0.2160806 0.1556745 -0.002625 -0.000610 0.000040 -0.4883984 2.1035295 3.9640251 18.7858102 -26.0370869 -59.6408104 25.6115660
1.4522822 -0.1777479 0.1314169 -0.003191 -0.000653 0.000096 -0.2625420 1.4874147 3.5861126 15.0473890 -21.3438835 -62.4936121 25.9834380
1.3811286 -0.1411951 0.1145790 -0.003325 -0.000560 0.000149 -0.1001431 1.0662841 3.3505414 11.3669169 -16.9413124 -64.4307133 26.6857686
1.3053653 -0.1070066 0.1044511 -0.003347 -0.000446 0.000205 0.0224200 0.7131047 3.0212710 7.9962544 -12.8476516 -65.7930532 27.1130795
1.2262917 -0.0755566 0.1001683 -0.003128 -0.000307 0.000244 0.1177525 0.4956064 3.0095161 4.9222718 -9.0864096 -66.4566228 27.8209690
1.1452507 -0.0470685 0.1007710 -0.002975 -0.000178 0.000285 0.1504990 0.2341600 2.2959079 2.2875794 -5.7147889 -67.4092706 28.1863257
1.0643752 -0.0218257 0.1052064 -0.002717 0.000006 0.000253 0.5558640 0.2850657 6.3595381 0.0724163 -2.5097547 -65.7213010 28.8585770
1.7734860 0.4296337 0.5589214 0.004734 -0.001417 0.000354 -3.1951507 -9.5753632 1.1943786 37.5287548 52.5313538 -8.1862234 23.9425740
1.7904584 0.4111126 0.4940384 0.004463 -0.001518 0.000040 -3.0368560 -8.2077610 2.2113223 39.7506795 51.3511040 -16.9085924 23.4960049
1.7948796 0.3864254 0.4282403 0.003591 -0.001364 -0.000131 -2.7676154 -6.9016055 3.0158980 40.5871702 48.5283934 -25.9569711 23.1121978
1.7861268 0.3559091 0.3639595 0.002373 -0.001052 -0.000283 -2.3471711 -5.5104765 3.4928455 40.0028093 44.7712996 -34.7104986 22.9621869
1.7639595 0.3205530 0.3036731 0.000828 -0.000630 -0.000455 -1.8836068 -4.2483350 3.6932427 38.1016043 40.2246859 -42.7734333 22.9655778
1.7288833 0.2817679 0.2495474 -0.000666 -0.000190 -0.000520 -1.4520229 -3.2152131 3.7215709 34.9594342 35.1530771 -49.7322581 23.2155350
1.6820606 0.2411471 0.2031397 -0.001989 0.000186 -0.000516 -1.0774917 -2.4011237 3.6509419 30.9700423 29.8456331 -55.4430086 23.6170408
1.6250786 0.2002264 0.1652753 -0.002952 0.000416 -0.000442 -0.7608671 -1.7601413 3.5127544 26.4359399 24.5704918 -59.8086219 24.1753519
1.5596816 0.1603038 0.1360940 -0.003604 0.000546 -0.000315 -0.5066560 -1.2725250 3.3732176 21.7568812 19.4914681 -62.9815650 24.8225356
1.4875556 0.1223576 0.1152001 -0.003807 0.000485 -0.000175 -0.2963353 -0.8758731 3.1724163 17.1503629 14.7935737 -65.0940984 25.5307903
1.4101935 0.0870442 0.1018523 -0.003822 0.000408 -0.000030 -0.1346973 -0.5764330 3.0141066 12.8730890 10.4529819 -66.4106070 26.2408260
1.3288284 0.0547542 0.0951223 -0.003591 0.000251 0.000092 -0.0084217 -0.3317534 2.7984204 8.9825558 6.5658589 -67.1175476 26.9446119
1.2443696 0.0256846 0.0940249 -0.003318 0.000147 0.000190 0.0797900 -0.1364305 2.4658677 5.5604923 3.0707136 -67.5770350 27.6258224
1.1570894 0.0000000 0.0976067 -0.002959 0.000012 0.000240 0.1601814 0.0000017 2.5785362 2.6043633 -0.0087958 -67.2434696 28.2340746
1.8582166 0.3954823 0.5525939 0.004686 -0.002032 -0.000166 -3.1497265 -6.7279890 1.0195071 47.5082542 50.7984099 -9.4183881 22.1267500
1.8740671 0.3708656 0.4816079 0.003867 -0.001914 -0.000299 -2.6149244 -4.9941243 1.6512428 49.9124084 48.0465268 -19.5237692 21.4090382
1.8742738 0.3402285 0.4109000 0.002877 -0.001799 -0.000705 -2.0114985 -3.5066512 1.9085917 50.3238778 44.3122593 -29.5365525 21.2103166
1.8589182 0.3042464 0.3433114 0.001163 -0.001272 -0.000987 -1.4390080 -2.3282445 1.8742517 48.9270635 39.5327053 -39.0274458 21.0409113
1.8285487 0.2643098 0.2815418 -0.000333 -0.000829 -0.001137 -1.0899278 -1.6606203 1.8805252 45.6240450 34.1240595 -47.3287152 21.3882603
1.7844609 0.2221713 0.2277086 -0.001988 -0.000255 -0.001178 -0.8499305 -1.2352608 1.9261415 41.0684709 28.3771622 -54.1844097 21.7482157
1.7285174 0.1795953 0.1830768 -0.003094 0.000067 -0.001078 -0.7342776 -1.0293053 2.2077588 35.5433706 22.6426586 -59.3737953 22.5460276
1.6628123 0.1380955 0.1480356 -0.003982 0.000299 -0.000902 -0.5912732 -0.8063801 2.4258954 29.7681036 17.1762219 -63.0670037 23.2339174
1.5893527 0.0987996 0.1222722 -0.004232 0.000292 -0.000644 -0.4544244 -0.6058018 2.6829997 23.9718522 12.1461858 -65.4400640 24.2276423
1.5098408 0.0624430 0.1050105 -0.004367 0.000275 -0.000388 -0.2887032 -0.3746771 2.7148461 18.6186863 7.5815697 -66.8391379 24.9913645
1.4255382 0.0294399 0.0952465 -0.004034 0.000081 -0.000148 -0.1444735 -0.1753027 2.7461408 13.6718210 3.5744249 -67.4824322 26.0024898
1.3371241 0.0000000 0.0919150 -0.003829 -0.000007 0.000047 -0.0170537 0.0000013 2.5292489 9.3905154 0.0059019 -67.7015113 26.6759848
1.2443696 -0.0256845 0.0940250 -0.003310 -0.000157 0.000191 0.0797816 0.1364189 2.4656098 5.5543468 -3.0677553 -67.5769243 27.6224398
1.9384940 0.3504291 0.5467904 0.004031 -0.002391 -0.000313 -1.3272059 -2.0267795 0.3796688 58.8800636 46.7756693 -10.7719259 19.9839912
1.9506845 0.3193818 0.4703464 0.003056 -0.002296 -0.000915 -0.0988204 -0.1330163 0.0555688 61.1496736 43.0194945 -22.0542105 19.4264078
1.9446261 0.2827024 0.3954221 0.001637 -0.001912 -0.001338 0.7710973 0.9287317 -0.6568058 60.7721723 38.0857081 -33.1396431 19.1799945
1.9208900 0.2416472 0.3254317 -0.000061 -0.001415 -0.001744 0.9887382 1.0752863 -1.1653118 57.8025517 32.3734536 -43.0836610 19.3776778
1.8808849 0.1980616 0.2632448 -0.001789 -0.000788 -0.001897 0.6872776 0.6766563 -1.0815756 52.7764423 26.1979325 -51.4421724 19.9004354
1.8267887 0.1539294 0.2107612 -0.003204 -0.000289 -0.001837 0.1730130 0.1531290 -0.3604585 46.2682189 20.0221518 -57.8056599 20.7325060
1.7611485 0.1109914 0.1687780 -0.004188 0.000065 -0.001589 -0.2243663 -0.1740962 0.6251489 39.1628441 14.1611936 -62.3273173 21.7142048
1.6864348 0.0705406 0.1371502 -0.004618 0.000166 -0.001223 -0.4027252 -0.2559951 1.5442483 31.9888359 8.8378828 -65.1807419 22.8148077
1.6047179 0.0333967 0.1151016 -0.004692 0.000151 -0.000830 -0.4008696 -0.1680433 2.2349115 25.2243766 4.0977628 -66.7661579 23.9152381
1.5174873 0.0000000 0.1015294 -0.004452 0.000006 -0.000458 -0.2855801 0.0000012 2.5771723 19.1006305 -0.0045554 -67.4303001 24.9819759
1.4255382 -0.0294399 0.0952465 -0.004045 -0.000086 -0.000148 -0.1444625 0.1752922 2.7459322 13.6775721 -3.5751685 -67.4827407 26.0073408
1.3288284 -0.0547542 0.0951223 -0.003587 -0.000234 0.000089 -0.0084214 0.3317472 2.7983438 8.9815106 -6.5795002 -67.1157004 26.9445819
2.0114043 0.2929176 0.5413609 0.003129 -0.002591 -0.000612 3.8186600 4.0858504 -0.9893030 71.1481279 40.6072741 -12.1122565 17.7224114
2.0173275 0.2554639 0.4602884 0.001957 -0.002301 -0.001302 5.7871688 5.3127064 -2.9770351 72.6818141 35.5746445 -24.6094140 17.1205981
2.0027114 0.2133537 0.3823021 0.000421 -0.001898 -0.002017 6.0535894 4.7807820 -4.7629131 70.6765828 29.6107998 -36.3532588 17.2746911
1.9688149 0.1684694 0.3112608 -0.001379 -0.001161 -0.002404 4.8796026 3.2805408 -5.3637760 65.6400329 23.0851328 -46.5432347 17.6974895
1.9180330 0.1229841 0.2499840 -0.002892 -0.000668 -0.002503 2.9531150 1.6353525 -4.3776307 58.3147330 16.5885224 -54.5384741 18.7444406
1.8534129 0.0788645 0.1999318 -0.004145 -0.000159 -0.002320 1.2719920 0.5340185 -2.5228669 49.8601674 10.3869584 -60.2546840 19.8302300
1.7780256 0.0375701 0.1613082 -0.004680 -0.000069 -0.001866 0.1679754 0.0417752 -0.4509485 41.1002822 4.8677933 -63.9205438 21.2710295
1.6944893 0.0000000 0.1334219 -0.004956 -0.000004 -0.001372 -0.3002330 0.0000005 1.1260846 32.8073867 0.0036358 -65.9372119 22.4839513
1.6047179 -0.0333967 0.1151016 -0.004675 -0.000157 -0.000828 -0.4008862 0.1680523 2.2350042 25.2167975 -4.0964647 -66.7671842 23.9139104
1.5098408 -0.0624430 0.1050105 -0.004373 -0.000282 -0.000388 -0.2887083 0.3746864 2.7148940 18.6207056 -7.5741267 -66.8398358 24.9889293
1.4101935 -0.0870442 0.1018524 -0.003811 -0.000422 -0.000027 -0.1347058 0.5764729 3.0142992 12.8671042 -10.4473207 -66.4117199 26.2373319
2.0728538 0.2222303 0.5365984 0.002052 -0.002418 -0.000871 13.1669652 9.3169681 -3.1683686 82.9819091 31.6756541 -13.3457791 15.4665226
2.0699095 0.1791760 0.4520792 0.000761 -0.001927 -0.001848 14.5778246 8.3479500 -7.0417066 82.8605495 25.5077739 -26.6659125 15.2469923
2.0446557 0.1332177 0.3725605 -0.000765 -0.001349 -0.002548 12.6409873 5.6647065 -9.4398538 78.6110246 18.8139160 -38.8191290 15.6802604
1.9993438 0.0866813 0.3020373 -0.002378 -0.000730 -0.002957 8.6612984 2.7851198 -9.1361421 71.0480212 12.0570089 -48.8003637 16.7168339
1.9373888 0.0417373 0.2429698 -0.003641 -0.000174 -0.002873 4.6060564 0.8236868 -6.6295251 61.4389428 5.6440226 -56.2234827 18.0949402
1.8625136 0.0000000 0.1961973 -0.004404 0.000006 -0.002462 1.7296854 -0.0000016 -3.3754866 51.1509204 -0.0039366 -61.1298149 19.6735092
1.7780256 -0.0375700 0.1613083 -0.004694 0.000064 -0.001870 0.1679930 -0.0417800 -0.4509959 41.1062715 -4.8675679 -63.9187197 21.2726904
1.6864347 -0.0705405 0.1371503 -0.004615 -0.000153 -0.001224 -0.4027159 0.2559907 1.5442129 31.9878310 -8.8468018 -65.1796368 22.8153411