# volRat = 0.650000
# viscRat = 5.000000
# alpha = 1.000000
# shRate = 2.750000
# tnum = 800
# time = 0.696000
VARIABLES = X, Y, Z, U, V, W, F_B0, F_B1, F_B2, F_0, F_1, F_2, T
ZONE N=2562 E=5120 F=FEPOINT ET=TRIANGLE
1.6658659 0.4657937 0.6212299 0.003997 -0.005536 0.000000 3.6995197 16.1228279 0.0000030 30.7017059 64.4165063 0.0000028 26.3548295
-1.6658659 0.4657937 0.6212299 -0.003997 -0.005536 -0.000000 -3.6995077 16.1228295 0.0000037 -30.7016776 64.4165100 0.0000034 26.3548175
1.6658659 -0.4657937 0.6212299 0.003997 0.005536 0.000000 3.6995073 -16.1228279 0.0000036 30.7016799 -64.4165070 0.0000029 26.3548143
-1.6658659 -0.4657937 0.6212299 -0.003997 0.005536 0.000000 -3.6995195 -16.1228272 0.0000030 -30.7017101 -64.4165042 0.0000025 26.3548279
1.0071312 -0.0000000 1.1367015 -0.010043 0.000000 -0.005573 -2.2192273 -0.0000308 19.7047490 -3.0640676 -0.0000232 74.6228816 29.6683089
1.0071312 -0.0000000 0.1057583 -0.010043 0.000000 0.005573 -2.2192255 -0.0000067 -19.7047850 -3.0640682 -0.0000132 -74.6229156 29.6683099
-1.0071312 0.0000000 1.1367015 0.010043 -0.000000 -0.005573 2.2192254 0.0000309 19.7047315 3.0640662 0.0000075 74.6228645 29.6683093
-1.0071312 0.0000000 0.1057583 0.010043 0.000000 0.005573 2.2192201 0.0000068 -19.7047370 3.0640625 -0.0000013 -74.6228692 29.6683106
-0.0000000 0.3371288 0.8297095 0.000000 0.003115 0.002974 0.0000305 -120.0665617 -67.0520924 -0.0000330 -45.2395213 -20.6375100 33.3934225
0.0000000 -0.3371288 0.8297095 -0.000000 -0.003119 0.002975 0.0000049 120.0642553 -67.0503252 0.0000717 45.2371632 -20.6356527 33.3934375
-0.0000000 0.3371288 0.4127503 0.000000 0.003111 -0.002971 -0.0000003 -120.0623518 67.0494948 -0.0000628 -45.2354179 20.6351676 33.3934088
0.0000000 -0.3371288 0.4127503 -0.000000 -0.003118 -0.002975 0.0000052 120.0626877 67.0497529 0.0000723 45.2356938 20.6350711 33.3934331
1.6879227 0.4588182 0.6750588 0.005760 -0.005836 -0.000784 -3.2507247 -12.9403194 -1.2308368 30.9868866 55.1475726 6.4137947 26.1389382
1.7039368 0.4455674 0.7337091 0.005843 -0.005560 -0.001428 -2.6096202 -9.4826363 -2.0621352 33.0977644 54.9547553 14.5541445 25.6086579
1.7111402 0.4261942 0.7948619 0.005621 -0.005198 -0.002135 -2.4635268 -8.3227327 -2.9478335 33.9006133 52.8770658 22.7331195 25.4142404
1.7077315 0.4010253 0.8558963 0.004451 -0.004644 -0.002725 -2.1929094 -7.0266890 -3.5875365 33.9796792 50.0192493 30.9695140 25.0548519
1.6928491 0.3706938 0.9145587 0.003243 -0.004110 -0.003356 -1.8770843 -5.8336790 -4.0339817 32.8573898 46.3095355 38.8177433 25.0920562
1.6663953 0.3362026 0.9687865 0.001531 -0.003477 -0.004018 -1.4871753 -4.5992206 -4.1578423 30.8313374 41.9830337 46.0037807 25.0370010
1.6289309 0.2988003 1.0169189 -0.000093 -0.002923 -0.004703 -1.1159970 -3.5426298 -4.1035132 27.8876851 37.2528160 52.2421688 25.3547935
1.5815122 0.2598180 1.0578268 -0.001830 -0.002373 -0.005411 -0.7769373 -2.6373765 -3.8766204 24.3835191 32.2855260 57.4118530 25.5810754
1.5254830 0.2205092 1.0909527 -0.003204 -0.001953 -0.006087 -0.5024275 -1.9393866 -3.6139429 20.4315798 27.3376989 61.4922912 26.1568150
1.4622769 0.1819408 1.1162510 -0.004549 -0.001543 -0.006684 -0.2787218 -1.3684823 -3.2583033 16.4391759 22.5004248 64.5911018 26.5379492
1.3932691 0.1449451 1.1340669 -0.005514 -0.001215 -0.007120 -0.1167451 -0.9747436 -3.0207998 12.4357180 17.9081602 66.7569301 27.2370869
1.3197074 0.1101281 1.1450093 -0.006456 -0.000940 -0.007334 0.0066960 -0.6527078 -2.7240399 8.7037398 13.6279467 68.2314890 27.6816462
1.2427497 0.0779138 1.1498409 -0.007211 -0.000649 -0.007283 0.1000005 -0.4376661 -2.6151133 5.2354856 9.6540376 69.0638671 28.3821209
1.1635862 0.0485949 1.1494291 -0.008061 -0.000385 -0.006902 0.1708035 -0.2568319 -2.4753820 2.2251696 6.0221404 69.4570137 28.7742365
1.0841983 0.0225381 1.1447650 -0.008783 -0.000270 -0.006271 0.5137904 -0.2459708 -5.3845927 -0.5085114 2.7184169 68.9339828 29.4477835
1.7735173 -0.4325191 0.6835225 0.006867 0.005137 -0.000949 -2.9529331 8.3444726 -1.0332472 39.8972192 -54.4700320 8.3549336 24.4729628
1.7902213 -0.4138276 0.7484593 0.006933 0.004888 -0.001225 -3.0038256 7.6764097 -2.0544045 41.9193541 -52.5335762 17.0831083 24.0197228
1.7947036 -0.3891182 0.8144110 0.006210 0.004462 -0.001636 -2.6865121 6.3410668 -2.7533309 42.8172825 -49.7292855 26.2721597 23.6370902
1.7863214 -0.3587124 0.8789846 0.004992 0.003951 -0.002097 -2.2580919 5.0151641 -3.1586220 42.2485574 -45.9649286 35.1855592 23.4900387
1.7648433 -0.3235542 0.9397359 0.003245 0.003349 -0.002597 -1.8007332 3.8337593 -3.3105397 40.3543340 -41.4146051 43.4658276 23.4916611
1.7307859 -0.2849862 0.9945145 0.001373 0.002739 -0.003255 -1.3854025 2.8837500 -3.3135077 37.1882112 -36.3363654 50.6913411 23.7452111
1.6853180 -0.2445249 1.0417534 -0.000475 0.002167 -0.004028 -1.0291488 2.1415921 -3.2295316 33.1267324 -30.9982927 56.7169855 24.1504882
1.6300232 -0.2036341 1.0805903 -0.002111 0.001686 -0.004874 -0.7318913 1.5650415 -3.0940051 28.4649892 -25.6488129 61.4164325 24.7057474
1.5666250 -0.1635591 1.1108253 -0.003539 0.001250 -0.005715 -0.4963716 1.1342215 -2.9741689 23.5820965 -20.4442886 64.9010067 25.3551970
1.4967584 -0.1252538 1.1327764 -0.004604 0.000982 -0.006447 -0.2980074 0.7794933 -2.7886860 18.7051431 -15.5983022 67.2944274 26.0675057
1.4218247 -0.0893832 1.1470950 -0.005572 0.000667 -0.007012 -0.1453496 0.5153477 -2.6576736 14.1012768 -11.0607318 68.8141057 26.7774877
1.3429215 -0.0563782 1.1546116 -0.006324 0.000442 -0.007323 -0.0225303 0.2945832 -2.4474300 9.8229224 -6.9703518 69.6650291 27.4906294
1.2607852 -0.0265006 1.1562105 -0.007101 0.000187 -0.007323 0.0686503 0.1269869 -2.2584456 5.9784522 -3.2671917 70.0262176 28.1851787
1.1754916 -0.0000000 1.1527425 -0.007851 0.000000 -0.007002 0.1101515 0.0000000 -1.6992654 2.5542349 -0.0000036 70.1859679 28.7991423
1.8559592 -0.3975583 0.6898218 0.008158 0.004661 -0.000390 -3.0126042 6.1456554 -0.9252640 49.6403258 -51.7224543 9.4731667 22.6530869
1.8716374 -0.3727709 0.7608356 0.007655 0.004205 -0.000757 -2.4383450 4.4558719 -1.4645263 52.0517814 -48.8785276 19.6398411 21.9335412
1.8720608 -0.3421206 0.8316939 0.006782 0.003883 -0.000867 -1.8255912 3.0459014 -1.6484468 52.4929317 -45.1156034 29.7362397 21.7316296
1.8572675 -0.3062516 0.8995994 0.004953 0.003217 -0.001155 -1.2587256 1.9466393 -1.5581941 51.1470210 -40.3367337 39.3735754 21.5642938
1.8277988 -0.2664917 0.9618836 0.003128 0.002684 -0.001663 -0.9241519 1.3420399 -1.5106531 47.8956725 -34.9591910 47.9073899 21.9128049
1.7849515 -0.2245125 1.0164340 0.000946 0.001992 -0.002381 -0.7094584 0.9781460 -1.5150472 43.3644061 -29.2139051 55.0685497 22.2686047
1.7305905 -0.1819972 1.0619594 -0.000851 0.001516 -0.003297 -0.6258096 0.8263167 -1.7587398 37.8119964 -23.4513350 60.6244405 23.0669255
1.6668078 -0.1403940 1.0980177 -0.002569 0.001058 -0.004301 -0.5199789 0.6610467 -1.9707588 31.9221843 -17.8946927 64.6878032 23.7571739
1.5955895 -0.1007928 1.1248522 -0.003739 0.000770 -0.005332 -0.4176881 0.5109649 -2.2391096 25.9308903 -12.7293947 67.4066229 24.7482449
1.5185800 -0.0639252 1.1431591 -0.004842 0.000441 -0.006235 -0.2783197 0.3228825 -2.3110465 20.2904345 -7.9826360 69.0805719 25.5192490
1.4369287 -0.0302366 1.1538557 -0.005541 0.000282 -0.006919 -0.1509576 0.1545132 -2.3871353 14.9841974 -3.7815424 69.9169130 26.5378317
1.3511459 -0.0000000 1.1579114 -0.006451 0.000000 -0.007306 -0.0301952 0.0000000 -2.2588134 10.2891819 0.0000010 70.1851683 27.2212977
1.2607852 0.0265006 1.1562105 -0.007101 -0.000187 -0.007323 0.0686500 -0.1269864 -2.2584352 5.9784451 3.2671949 70.0262277 28.1851848
1.9343827 -0.3517411 0.6955948 0.008863 0.004004 -0.000145 -1.1108958 1.6353758 -0.3046065 60.8127393 -47.2833799 10.7737091 20.5180575
1.9465105 -0.3205572 0.7720316 0.008185 0.003649 0.000031 0.1146814 -0.1489803 0.0619110 63.0554452 -43.4487462 22.0504976 19.9654937
1.9408162 -0.2838946 0.8470907 0.006778 0.003128 0.000005 0.9807607 -1.1395411 0.8018477 62.7316956 -38.5109388 33.1775966 19.7190182
1.9178277 -0.2429574 0.9174157 0.004833 0.002595 -0.000129 1.2062814 -1.2631207 1.3619360 59.8802977 -32.8488205 43.2673196 19.9096855
1.8789299 -0.1995088 0.9801647 0.002581 0.001921 -0.000646 0.9047789 -0.8547057 1.3587222 54.9849535 -26.7146891 51.8835261 20.4297408
1.8262875 -0.1554428 1.0334251 0.000452 0.001360 -0.001500 0.3743171 -0.3161804 0.7396560 48.5717727 -20.5564339 58.6131069 21.2563376
1.7624441 -0.1124243 1.0763512 -0.001430 0.000826 -0.002626 -0.0758435 0.0557326 -0.1986594 41.4606366 -14.6274658 63.5187866 22.2298642
1.6898682 -0.0716976 1.1090192 -0.002820 0.000500 -0.003891 -0.2978445 0.1773193 -1.0602653 34.2093680 -9.2050050 66.8109162 23.3284693
1.6106062 -0.0340682 1.1321291 -0.003928 0.000205 -0.005111 -0.3486591 0.1346547 -1.7721677 27.2320260 -4.2982647 68.7501703 24.4312813
1.5260747 -0.0000000 1.1467061 -0.004801 0.000000 -0.006158 -0.2704393 0.0000000 -2.1617010 20.8092302 -0.0000060 69.6899010 25.4997437
1.4369287 0.0302366 1.1538557 -0.005541 -0.000282 -0.006919 -0.1509576 -0.1545132 -2.3871355 14.9841979 3.7815448 69.9169117 26.5378289
1.3429215 0.0563782 1.1546116 -0.006324 -0.000442 -0.007323 -0.0225303 -0.2945834 -2.4474320 9.8229260 6.9703440 69.6650286 27.4906279
2.0057811 -0.2935722 0.7009818 0.009304 0.003352 0.000256 3.9127096 -4.0632575 0.9789356 72.6929817 -40.7205426 12.0333751 18.2793182
2.0117679 -0.2560480 0.7820042 0.008325 0.002897 0.000619 5.8285403 -5.1955529 2.8978390 74.2067568 -35.6570350 24.4506865 17.6760468
1.9976832 -0.2139966 0.8601088 0.006653 0.002468 0.000939 6.1284442 -4.6945491 4.6559249 72.3348123 -29.7543443 36.2054634 17.8301423
1.9647361 -0.1692205 0.9315064 0.004383 0.001750 0.000797 5.0332795 -3.2738946 5.3281357 67.5201100 -23.3020163 46.5461823 18.2438961
1.9152760 -0.1237959 0.9933936 0.002136 0.001263 0.000196 3.1769992 -1.6951115 4.5145178 60.4383730 -16.8583717 54.8512841 19.2748668
1.8523213 -0.0796036 1.0442723 -0.000041 0.000646 -0.000857 1.5070401 -0.6059070 2.8455495 52.1544912 -10.6319555 60.9925012 20.3537251
1.7789362 -0.0380459 1.0838666 -0.001637 0.000355 -0.002258 0.3563999 -0.0841579 0.9019608 43.4432620 -5.0228691 65.1184309 21.7866220
1.6977369 -0.0000000 1.1127868 -0.003040 0.000000 -0.003706 -0.1845026 0.0000000 -0.6434715 35.0519204 -0.0000001 67.5564890 22.9979250
1.6106062 0.0340682 1.1321291 -0.003928 -0.000205 -0.005111 -0.3486590 -0.1346546 -1.7721671 27.2320249 4.2982682 68.7501717 24.4312886
1.5185800 0.0639252 1.1431591 -0.004842 -0.000441 -0.006235 -0.2783197 -0.3228825 -2.3110465 20.2904350 7.9826402 69.0805711 25.5192475
1.4218247 0.0893832 1.1470950 -0.005572 -0.000667 -0.007012 -0.1453496 -0.5153478 -2.6576738 14.1012733 11.0607324 68.8141058 26.7774914
2.0660095 -0.2224155 0.7056900 0.009458 0.002599 0.000616 12.7983487 -8.8311324 2.9899124 84.0081894 -31.5403341 13.1829220 16.0579150
2.0632931 -0.1793707 0.7901178 0.008211 0.002085 0.001339 14.1839552 -7.9188809 6.6517514 83.9388284 -25.4260676 26.3648719 15.8413064
2.0387772 -0.1334950 0.8697499 0.006319 0.001544 0.001675 12.4295339 -5.4211807 8.9965500 79.9490713 -18.8198948 38.5134352 16.2577523
1.9946408 -0.0870117 0.9406608 0.004002 0.000962 0.001523 8.7014335 -2.7145824 8.8659396 72.7542310 -12.1375420 48.6780237 17.2768176
1.9342285 -0.0419969 1.0003832 0.001768 0.000355 0.000679 4.8154756 -0.8313707 6.6586057 63.4936649 -5.7288488 56.4673276 18.6346588
1.8612255 -0.0000000 1.0480107 -0.000163 0.000000 -0.000642 1.9557550 -0.0000000 3.6378306 53.4072984 -0.0000033 61.8071591 20.1931122
1.7789362 0.0380458 1.0838666 -0.001637 -0.000355 -0.002258 0.3564001 0.0841580 0.9019614 43.4432587 5.0228697 65.1184314 21.7866182
1.6898682 0.0716976 1.1090192 -0.002820 -0.000500 -0.003891 -0.2978444 -0.1773192 -1.0602649 34.2093707 9.2049981 66.8109178 23.3284678
1.5955895 0.1007928 1.1248522 -0.003739 -0.000770 -0.005332 -0.4176883 -0.5109651 -2.2391110 25.9308897 12.7293910 67.4066208 24.7482382
1.4967584 0.1252538 1.1327764 -0.004604 -0.000982 -0.006447 -0.2980072 -0.7794930 -2.7886850 18.7051457 15.5982954 67.2944314 26.0675090
2.1102028 -0.1392888 0.7092588 0.009401 0.001667 0.000934 23.7430027 -9.3697864 5.2995861 92.9927567 -19.9574312 14.0188523 14.1953276
2.0966340 -0.0925955 0.7955022 0.008060 0.001109 0.001755 22.5062993 -6.0535022 10.1926297 90.6949302 -13.2361283 27.6476186 14.3353162
2.0604537 -0.0454209 0.8749269 0.006085 0.000545 0.002114 16.9690636 -2.4038332 11.9900526 84.1612487 -6.4489177 39.7216791 15.3898745
2.0049400 -0.0000000 0.9438483 0.003857 0.000000 0.001748 10.3096948 -0.0000002 10.3724328 74.6228945 -0.0000036 49.4536503 16.7603655
1.9342285 0.0419969 1.0003832 0.001768 -0.000355 0.000679 4.8154761 0.8313706 6.6586062 63.4936674 5.7288512 56.4673277 18.6346635
1.8523213 0.0796036 1.0442723 -0.000041 -0.000646 -0.000857 1.5070397 0.6059068 2.8455487 52.1544922 10.6319545 60.9925000 20.3537250
1.7624441 0.1124242 1.0763512 -0.001430 -0.000826 -0.002626 -0.0758430 -0.0557322 -0.1986582 41.4606382 14.6274688 63.5187874 22.2298683
1.6668078 0.1403940 1.0980177 -0.002569 -0.001058 -0.004301 -0.5199789 -0.6610466 -1.9707588 31.9221826 17.8946947 64.6878030 23.7571777
1.5666250 0.1635591 1.1108253 -0.003539 -0.001250 -0.005715 -0.4963715 -1.1342214 -2.9741687 23.5820949 20.4442951 64.9010050 25.3551996
2.1337482 -0.0474944 0.7112023 0.009313 0.000568 0.001112 31.6758447 -4.0682671 6.9111742 97.9106787 -6.8100100 14.4445060 13.1265664
2.1082102 -0.0000000 0.7973979 0.007962 0.000000 0.001963 25.9671476 -0.0000004 11.6242459 93.0629903 -0.0000010 28.0528502 13.9049349
2.0604537 0.0454209 0.8749269 0.006085 -0.000545 0.002114 16.9690642 2.4038328 11.9900530 84.1612471 6.4489187 39.7216800 15.3898736
1.9946408 0.0870117 0.9406608 0.004002 -0.000962 0.001523 8.7014349 2.7145825 8.8659410 72.7542324 12.1375419 48.6780252 17.2768165
1.9152760 0.1237959 0.9933936 0.002136 -0.001263 0.000196 3.1770008 1.6951122 4.5145200 60.4383722 16.8583684 54.8512873 19.2748617
1.8262875 0.1554428 1.0334251 0.000452 -0.001360 -0.001500 0.3743178 0.3161811 0.7396575 48.5717739 20.5564304 58.6131108 21.2563390
1.7305905 0.1819972 1.0619594 -0.000851 -0.001516 -0.003297 -0.6258095 -0.8263166 -1.7587396 37.8119959 23.4513315 60.6244405 23.0669175
1.6300232 0.2036341 1.0805903 -0.002111 -0.001686 -0.004874 -0.7318912 -1.5650412 -3.0940047 28.4649938 25.6488050 61.4164377 24.7057470
2.1337482 0.0474944 0.7112023 0.009313 -0.000568 0.001112 31.6758479 4.0682666 6.9111749 97.9106819 6.8100113 14.4445057 13.1265680
2.0966340 0.0925955 0.7955022 0.008060 -0.001109 0.001755 22.5062990 6.0535014 10.1926295 90.6949311 13.2361225 27.6476185 14.3353157
2.0387772 0.1334950 0.8697499 0.006319 -0.001544 0.001675 12.4295343 5.4211804 8.9965502 79.9490728 18.8198937 38.5134340 16.2577530
1.9647361 0.1692205 0.9315064 0.004383 -0.001750 0.000797 5.0332781 3.2738936 5.3281342 67.5201112 23.3020118 46.5461808 18.2438996
1.8789299 0.1995088 0.9801647 0.002581 -0.001921 -0.000646 0.9047789 0.8547056 1.3587222 54.9849539 26.7146947 51.8835227 20.4297428
1.7849515 0.2245125 1.0164340 0.000946 -0.001992 -0.002381 -0.7094587 -0.9781464 -1.5150479 43.3644081 29.2139026 55.0685497 22.2686073
1.6853180 0.2445249 1.0417534 -0.000475 -0.002167 -0.004028 -1.0291488 -2.1415920 -3.2295316 33.1267277 30.9983006 56.7169819 24.1504940
2.1102029 0.1392888 0.7092588 0.009401 -0.001667 0.000934 23.7430007 9.3697849 5.2995857 92.9927535 19.9574279 14.0188525 14.1953256
2.0632931 0.1793707 0.7901178 0.008211 -0.002085 0.001339 14.1839557 7.9188807 6.6517516 83.9388278 25.4260684 26.3648724 15.8413084
1.9976832 0.2139966 0.8601088 0.006653 -0.002468 0.000939 6.1284429 4.6945479 4.6559239 72.3348081 29.7543421 36.2054628 17.8301376
1.9178277 0.2429574 0.9174157 0.004833 -0.002595 -0.000129 1.2062808 1.2631200 1.3619353 59.8802980 32.8488158 43.2673224 19.9096845
1.8277988 0.2664917 0.9618836 0.003128 -0.002684 -0.001663 -0.9241517 -1.3420395 -1.5106527 47.8956706 34.9591865 47.9073927 21.9127997
1.7307860 0.2849862 0.9945145 0.001373 -0.002739 -0.003255 -1.3854022 -2.8837495 -3.3135071 37.1882150 36.3363624 50.6913457 23.7452103
2.0660095 0.2224155 0.7056900 0.009458 -0.002599 0.000616 12.7983505 8.8311332 2.9899128 84.0081898 31.5403356 13.1829207 16.0579134
2.0117679 0.2560480 0.7820042 0.008325 -0.002897 0.000619 5.8285417 5.1955539 2.8978397 74.2067650 35.6570289 24.4506881 17.6760480
1.9408162 0.2838946 0.8470907 0.006778 -0.003128 0.000005 0.9807616 1.1395421 0.8018484 62.7316957 38.5109429 33.1775938 19.7190209
1.8572675 0.3062516 0.8995994 0.004953 -0.003217 -0.001155 -1.2587253 -1.9466387 -1.5581936 51.1470260 40.3367344 39.3735741 21.5642979
1.7648434 0.3235542 0.9397359 0.003245 -0.003349 -0.002597 -1.8007333 -3.8337594 -3.3105398 40.3543312 41.4146102 43.4658231 23.4916624
2.0057811 0.2935722 0.7009818 0.009304 -0.003352 0.000256 3.9127107 4.0632585 0.9789359 72.6929802 40.7205436 12.0333766 18.2793171
1.9465105 0.3205572 0.7720316 0.008185 -0.003649 0.000031 0.1146826 0.1489819 0.0619116 63.0554442 43.4487495 22.0504996 19.9654944
1.8720608 0.3421206 0.8316939 0.006782 -0.003883 -0.000867 -1.8255906 -3.0459003 -1.6484463 52.4929324 45.1155986 29.7362454 21.7316210
1.7863214 0.3587124 0.8789846 0.004992 -0.003951 -0.002097 -2.2580913 -5.0151626 -3.1586212 42.2485575 45.9649281 35.1855663 23.4900411
1.9343827 0.3517411 0.6955948 0.008863 -0.004004 -0.000145 -1.1108964 -1.6353766 -0.3046067 60.8127405 47.2833773 10.7737067 20.5180536
1.8716374 0.3727709 0.7608356 0.007655 -0.004205 -0.000757 -2.4383453 -4.4558724 -1.4645264 52.0517884 48.8785255 19.6398397 21.9335487
1.7947036 0.3891182 0.8144110 0.006210 -0.004462 -0.001636 -2.6865125 -6.3410677 -2.7533314 42.8172794 49.7292904 26.2721493 23.6370911
1.8559592 0.3975583 0.6898218 0.008158 -0.004661 -0.000390 -3.0126038 -6.1456543 -0.9252638 49.6403225 51.7224548 9.4731698 22.6530811
1.7902213 0.4138276 0.7484593 0.006933 -0.004888 -0.001225 -3.0038256 -7.6764093 -2.0544044 41.9193520 52.5335757 17.0831167 24.0197218
1.7735173 0.4325191 0.6835225 0.006867 -0.005137 -0.000949 -2.9529334 -8.3444734 -1.0332473 39.8972171 54.4700328 8.3549247 24.4729621
1.7437471 0.4460562 0.6212299 0.006190 -0.005321 0.000000 -3.3664591 -10.9205154 0.0000000 36.4852154 55.2221375 0.0000005 25.1992352
1.8243774 0.4168467 0.6212299 0.007640 -0.004850 0.000000 -3.0737074 -7.1919148 0.0000000 45.6711893 53.4768748 -0.0000005 23.3026866
1.9043286 0.3771584 0.6212299 0.008650 -0.004248 0.000000 -2.2732288 -3.8740088 0.0000000 56.2663329 49.9993508 -0.0000002 21.4606574
1.9797020 0.3255098 0.6212299 0.009385 -0.003658 0.000000 1.2651609 1.5478071 -0.0000000 68.0047205 44.5968585 0.0000001 19.1279166
2.0464439 0.2608114 0.6212299 0.009735 -0.002943 0.000000 8.7367574 7.3760498 -0.0000000 80.0575594 36.7122351 -0.0000002 16.9145814
2.0997247 0.1831722 0.6212299 0.009838 -0.002118 0.000000 19.9303508 10.5727371 0.0000000 90.6855366 26.1979309 0.0000002 14.6917832
2.1344621 0.0947200 0.6212299 0.009810 -0.001136 0.000000 30.8322993 7.8929766 0.0000001 97.9232816 13.6036024 0.0000000 13.2357788
2.1465727 -0.0000000 0.6212299 0.009771 0.000000 0.000000 35.5801133 -0.0000005 0.0000001 100.4856154 -0.0000043 0.0000001 12.5531522
2.1344621 -0.0947200 0.6212299 0.009810 0.001136 0.000000 30.8323019 -7.8929781 0.0000001 97.9232854 -13.6036022 -0.0000000 13.2357797
2.0997247 -0.1831723 0.6212299 0.009838 0.002118 0.000000 19.9303471 -10.5727358 0.0000000 90.6855302 -26.1979351 0.0000002 14.6917805
2.0464439 -0.2608114 0.6212299 0.009735 0.002943 0.000000 8.7367564 -7.3760493 -0.0000000 80.0575578 -36.7122358 -0.0000002 16.9145816
1.9797020 -0.3255098 0.6212299 0.009385 0.003659 0.000000 1.2651600 -1.5478060 -0.0000000 68.0047127 -44.5968617 -0.0000000 19.1279140
1.9043286 -0.3771584 0.6212299 0.008650 0.004248 0.000000 -2.2732293 3.8740099 0.0000000 56.2663371 -49.9993465 -0.0000003 21.4606528
1.8243774 -0.4168467 0.6212299 0.007640 0.004850 0.000000 -3.0737069 7.1919138 0.0000000 45.6711714 -53.4768814 -0.0000004 23.3026830
1.7437471 -0.4460562 0.6212299 0.006190 0.005321 0.000000 -3.3664593 10.9205162 0.0000000 36.4852345 -55.2221309 -0.0000002 25.1992301
1.6879227 -0.4588182 0.5674010 0.005760 0.005836 0.000784 -3.2507241 12.9403173 1.2308366 30.9868784 -55.1475797 -6.4137820 26.1389530
1.7039368 -0.4455674 0.5087507 0.005843 0.005560 0.001428 -2.6096201 9.4826359 2.0621351 33.0977561 -54.9547539 -14.5541529 25.6086468
1.7111402 -0.4261942 0.4475979 0.005621 0.005198 0.002135 -2.4635268 8.3227329 2.9478335 33.9006132 -52.8770708 -22.7331120 25.4142495
1.7077315 -0.4010253 0.3865635 0.004451 0.004644 0.002725 -2.1929095 7.0266898 3.5875369 33.9796735 -50.0192481 -30.9695141 25.0548458
1.6928491 -0.3706938 0.3279011 0.003243 0.004110 0.003356 -1.8770842 5.8336789 4.0339817 32.8573875 -46.3095406 -38.8177412 25.0920671
1.6663952 -0.3362026 0.2736732 0.001531 0.003477 0.004018 -1.4871753 4.5992208 4.1578424 30.8313378 -41.9830322 -46.0037806 25.0369924
1.6289309 -0.2988003 0.2255409 -0.000093 0.002923 0.004703 -1.1159968 3.5426291 4.1035123 27.8876830 -37.2528237 -52.2421675 25.3548040
1.5815122 -0.2598180 0.1846329 -0.001830 0.002373 0.005412 -0.7769374 2.6373770 3.8766209 24.3835184 -32.2855248 -57.4118524 25.5810729
1.5254830 -0.2205092 0.1515071 -0.003204 0.001953 0.006087 -0.5024274 1.9393860 3.6139417 20.4315811 -27.3377019 -61.4922933 26.1568196
1.4622769 -0.1819408 0.1262088 -0.004549 0.001543 0.006684 -0.2787218 1.3684822 3.2583030 16.4391768 -22.5004265 -64.5911013 26.5379492
1.3932691 -0.1449451 0.1083929 -0.005514 0.001215 0.007120 -0.1167451 0.9747439 3.0208008 12.4357157 -17.9081582 -66.7569312 27.2370945
1.3197074 -0.1101281 0.0974504 -0.006456 0.000940 0.007334 0.0066960 0.6527085 2.7240427 8.7037435 -13.6279445 -68.2314866 27.6816429
1.2427497 -0.0779138 0.0926189 -0.007211 0.000649 0.007283 0.0999996 0.4376623 2.6150907 5.2354806 -9.6540391 -69.0638904 28.3821261
1.1635862 -0.0485949 0.0930306 -0.008061 0.000385 0.006902 0.1708024 0.2568303 2.4753662 2.2251693 -6.0221408 -69.4570287 28.7742395
1.0841983 -0.0225381 0.0976947 -0.008783 0.000270 0.006270 0.5138415 0.2459953 5.3851279 -0.5084677 -2.7183850 -68.9334605 29.4477811
1.7735173 0.4325191 0.5589372 0.006867 -0.005137 0.000949 -2.9529333 -8.3444730 1.0332473 39.8972170 54.4700331 -8.3549262 24.4729625
1.7902213 0.4138276 0.4940005 0.006933 -0.004888 0.001225 -3.0038257 -7.6764095 2.0544046 41.9193514 52.5335753 -17.0831175 24.0197218
1.7947036 0.3891182 0.4280487 0.006210 -0.004462 0.001636 -2.6865122 -6.3410669 2.7533311 42.8172795 49.7292910 -26.2721499 23.6370915
1.7863214 0.3587124 0.3634751 0.004992 -0.003951 0.002097 -2.2580907 -5.0151614 3.1586204 42.2485579 45.9649292 -35.1855672 23.4900408
1.7648433 0.3235542 0.3027238 0.003245 -0.003349 0.002597 -1.8007334 -3.8337597 3.3105401 40.3543300 41.4146102 -43.4658232 23.4916634
1.7307859 0.2849862 0.2479452 0.001373 -0.002739 0.003256 -1.3854023 -2.8837496 3.3135073 37.1882150 36.3363621 -50.6913455 23.7452099
1.6853180 0.2445249 0.2007063 -0.000475 -0.002167 0.004028 -1.0291486 -2.1415916 3.2295310 33.1267272 30.9983015 -56.7169826 24.1504946
1.6300232 0.2036341 0.1618694 -0.002111 -0.001686 0.004874 -0.7318912 -1.5650412 3.0940048 28.4649928 25.6488053 -61.4164375 24.7057475
1.5666250 0.1635591 0.1316344 -0.003539 -0.001250 0.005715 -0.4963715 -1.1342213 2.9741684 23.5820948 20.4442956 -64.9010052 25.3551997
1.4967584 0.1252538 0.1096833 -0.004604 -0.000982 0.006447 -0.2980073 -0.7794932 2.7886858 18.7051454 15.5982954 -67.2944304 26.0675088
1.4218247 0.0893832 0.0953647 -0.005572 -0.000667 0.007012 -0.1453496 -0.5153477 2.6576733 14.1012724 11.0607335 -68.8141061 26.7774924
1.3429215 0.0563782 0.0878481 -0.006325 -0.000442 0.007323 -0.0225303 -0.2945834 2.4474320 9.8229266 6.9703436 -69.6650284 27.4906271
1.2607852 0.0265006 0.0862493 -0.007101 -0.000187 0.007323 0.0686499 -0.1269863 2.2584342 5.9784449 3.2671954 -70.0262287 28.1851848
1.1754916 -0.0000000 0.0897172 -0.007851 0.000000 0.007002 0.1101513 0.0000000 1.6992626 2.5542343 -0.0000040 -70.1859704 28.7991430
1.8559592 0.3975583 0.5526379 0.008158 -0.004661 0.000390 -3.0126042 -6.1456550 0.9252640 49.6403223 51.7224535 -9.4731710 22.6530808
1.8716374 0.3727709 0.4816241 0.007655 -0.004205 0.000757 -2.4383456 -4.4558729 1.4645267 52.0517884 48.8785245 -19.6398394 21.9335485
1.8720608 0.3421206 0.4107659 0.006782 -0.003883 0.000867 -1.8255913 -3.0459014 1.6484469 52.4929314 45.1155963 -29.7362463 21.7316208
1.8572675 0.3062516 0.3428604 0.004953 -0.003217 0.001155 -1.2587248 -1.9466379 1.5581930 51.1470270 40.3367348 -39.3735741 21.5642974
1.8277988 0.2664917 0.2805762 0.003128 -0.002684 0.001663 -0.9241515 -1.3420392 1.5106524 47.8956709 34.9591856 -47.9073936 21.9127992
1.7849515 0.2245125 0.2260258 0.000946 -0.001992 0.002381 -0.7094586 -0.9781463 1.5150478 43.3644081 29.2139025 -55.0685495 22.2686073
1.7305905 0.1819972 0.1805004 -0.000851 -0.001516 0.003297 -0.6258096 -0.8263166 1.7587396 37.8119965 23.4513305 -60.6244405 23.0669169
1.6668078 0.1403940 0.1444420 -0.002569 -0.001058 0.004301 -0.5199791 -0.6610468 1.9707593 31.9221829 17.8946945 -64.6878020 23.7571773
1.5955895 0.1007928 0.1176076 -0.003739 -0.000770 0.005332 -0.4176883 -0.5109652 2.2391112 25.9308896 12.7293904 -67.4066206 24.7482385
1.5185800 0.0639252 0.0993006 -0.004842 -0.000441 0.006235 -0.2783197 -0.3228825 2.3110464 20.2904360 7.9826400 -69.0805709 25.5192468
1.4369287 0.0302366 0.0886041 -0.005541 -0.000282 0.006919 -0.1509576 -0.1545132 2.3871355 14.9841985 3.7815444 -69.9169118 26.5378286
1.3511459 -0.0000000 0.0845484 -0.006451 0.000000 0.007306 -0.0301952 0.0000000 2.2588139 10.2891818 0.0000009 -70.1851676 27.2212982
1.2607852 -0.0265006 0.0862493 -0.007101 0.000187 0.007323 0.0686503 0.1269870 2.2584458 5.9784531 -3.2671926 -70.0262175 28.1851782
1.9343827 0.3517411 0.5468649 0.008863 -0.004004 0.000145 -1.1108970 -1.6353775 0.3046069 60.8127394 47.2833762 -10.7737081 20.5180540
1.9465105 0.3205572 0.4704282 0.008185 -0.003649 -0.000031 0.1146819 0.1489810 -0.0619113 63.0554432 43.4487483 -22.0504991 19.9654942
1.9408162 0.2838946 0.3953691 0.006778 -0.003128 -0.000005 0.9807629 1.1395436 -0.8018495 62.7316966 38.5109446 -33.1775951 19.7190211
1.9178277 0.2429574 0.3250441 0.004833 -0.002595 0.000129 1.2062814 1.2631206 -1.3619360 59.8802981 32.8488165 -43.2673234 19.9096846
1.8789299 0.1995088 0.2622950 0.002581 -0.001921 0.000646 0.9047780 0.8547048 -1.3587209 54.9849528 26.7146942 -51.8835213 20.4297430
1.8262875 0.1554428 0.2090346 0.000452 -0.001360 0.001500 0.3743175 0.3161808 -0.7396568 48.5717732 20.5564300 -58.6131100 21.2563388
1.7624441 0.1124242 0.1661085 -0.001430 -0.000826 0.002626 -0.0758431 -0.0557323 0.1986583 41.4606374 14.6274695 -63.5187874 22.2298691
1.6898682 0.0716976 0.1334405 -0.002820 -0.000500 0.003891 -0.2978443 -0.1773191 1.0602645 34.2093707 9.2049980 -66.8109180 23.3284673
1.6106062 0.0340682 0.1103307 -0.003928 -0.000205 0.005111 -0.3486589 -0.1346546 1.7721667 27.2320248 4.2982689 -68.7501721 24.4312888
1.5260747 -0.0000000 0.0957536 -0.004801 0.000000 0.006158 -0.2704393 0.0000000 2.1617014 20.8092296 -0.0000058 -69.6899004 25.4997440
1.4369287 -0.0302366 0.0886041 -0.005541 0.000282 0.006919 -0.1509576 0.1545132 2.3871352 14.9841976 -3.7815422 -69.9169132 26.5378315
1.3429215 -0.0563782 0.0878481 -0.006324 0.000442 0.007323 -0.0225303 0.2945832 2.4474299 9.8229226 -6.9703518 -69.6650288 27.4906289
2.0057811 0.2935722 0.5414780 0.009304 -0.003352 -0.000256 3.9127105 4.0632583 -0.9789359 72.6929800 40.7205429 -12.0333772 18.2793168
2.0117679 0.2560480 0.4604555 0.008325 -0.002897 -0.000619 5.8285407 5.1955530 -2.8978392 74.2067639 35.6570276 -24.4506875 17.6760479
1.9976832 0.2139966 0.3823509 0.006653 -0.002468 -0.000939 6.1284428 4.6945478 -4.6559238 72.3348082 29.7543412 -36.2054627 17.8301373
1.9647361 0.1692205 0.3109533 0.004383 -0.001750 -0.000797 5.0332789 3.2738940 -5.3281351 67.5201125 23.3020119 -46.5461811 18.2438993
1.9152761 0.1237959 0.2490662 0.002136 -0.001263 -0.000196 3.1770001 1.6951118 -4.5145189 60.4383711 16.8583671 -54.8512864 19.2748617
1.8523213 0.0796036 0.1981875 -0.000041 -0.000646 0.000857 1.5070402 0.6059070 -2.8455498 52.1544935 10.6319544 -60.9925005 20.3537245
1.7789362 0.0380458 0.1585932 -0.001637 -0.000355 0.002258 0.3563997 0.0841579 -0.9019603 43.4432585 5.0228689 -65.1184302 21.7866179
1.6977369 -0.0000000 0.1296729 -0.003040 0.000000 0.003706 -0.1845025 0.0000000 0.6434714 35.0519206 -0.0000001 -67.5564888 22.9979252
1.6106062 -0.0340682 0.1103307 -0.003928 0.000205 0.005111 -0.3486590 0.1346546 1.7721670 27.2320265 -4.2982655 -68.7501709 24.4312809
1.5185800 -0.0639252 0.0993006 -0.004842 0.000441 0.006235 -0.2783197 0.3228825 2.3110468 20.2904352 -7.9826361 -69.0805712 25.5192486
1.4218247 -0.0893832 0.0953647 -0.005572 0.000667 0.007012 -0.1453496 0.5153478 2.6576737 14.1012763 -11.0607321 -68.8141056 26.7774884
2.0660096 0.2224155 0.5367697 0.009458 -0.002599 -0.000616 12.7983507 8.8311333 -2.9899128 84.0081898 31.5403358 -13.1829209 16.0579136
2.0632931 0.1793707 0.4523420 0.008211 -0.002085 -0.001339 14.1839569 7.9188813 -6.6517521 83.9388289 25.4260689 -26.3648726 15.8413083
2.0387772 0.1334950 0.3727099 0.006319 -0.001544 -0.001675 12.4295348 5.4211806 -8.9965506 79.9490729 18.8198940 -38.5134345 16.2577533
1.9946408 0.0870117 0.3017989 0.004002 -0.000962 -0.001523 8.7014339 2.7145822 -8.8659400 72.7542315 12.1375414 -48.6780237 17.2768162
1.9342285 0.0419969 0.2420766 0.001768 -0.000355 -0.000679 4.8154767 0.8313707 -6.6586070 63.4936679 5.7288515 -56.4673283 18.6346636
1.8612255 -0.0000000 0.1944491 -0.000163 0.000000 0.000642 1.9557555 -0.0000000 -3.6378316 53.4072986 -0.0000031 -61.8071600 20.1931124
1.7789362 -0.0380459 0.1585932 -0.001637 0.000355 0.002258 0.3564002 -0.0841580 -0.9019616 43.4432624 -5.0228687 -65.1184317 21.7866220
1.6898682 -0.0716976 0.1334405 -0.002820 0.000500 0.003891 -0.2978442 0.1773191 1.0602643 34.2093681 -9.2050050 -66.8109171 23.3284690