# volRat = 0.650000
# viscRat = 5.000000
# alpha = 1.000000
# shRate = 2.750000
# tnum = 2200
# time = 1.915091
VARIABLES = X, Y, Z, U, V, W, F_B0, F_B1, F_B2, F_0, F_1, F_2, T
ZONE N=2562 E=5120 F=FEPOINT ET=TRIANGLE
1.6664774 0.4622432 0.6212299 0.005009 0.002198 0.000001 4.5488371 20.7136866 0.0000037 30.5447809 68.9680581 -0.0007092 26.0137199
-1.6664774 0.4622432 0.6212299 -0.005009 0.002198 0.000001 -4.5488218 20.7136855 0.0000045 -30.5447699 68.9680563 -0.0006987 26.0137332
1.6664774 -0.4622432 0.6212299 0.005008 -0.002198 0.000001 4.5488213 -20.7136832 0.0000045 30.5447863 -68.9680464 -0.0007172 26.0137329
-1.6664774 -0.4622432 0.6212299 -0.005009 -0.002198 0.000001 -4.5488358 -20.7136809 0.0000037 -30.5447599 -68.9680614 -0.0006880 26.0137237
0.9970108 -0.0000000 1.1322383 -0.005343 0.000000 -0.007159 -3.2855565 -0.0000505 31.7921973 -3.7310870 -0.0000518 86.4504981 29.2448430
0.9970108 -0.0000000 0.1102215 -0.005345 -0.000000 0.007155 -3.2855059 -0.0000104 -31.7917932 -3.7297470 -0.0000340 -86.4499179 29.2423497
-0.9970108 0.0000000 1.1322383 0.005343 -0.000000 -0.007158 3.2855573 0.0000507 31.7922045 3.7312763 0.0000594 86.4504749 29.2447686
-0.9970108 0.0000000 0.1102215 0.005346 0.000000 0.007153 3.2851874 0.0000105 -31.7887100 3.7291663 0.0000286 -86.4469522 29.2422919
0.0000000 0.3438611 0.8347870 -0.000000 0.004046 0.002122 0.0000231 -89.8619341 -50.2603142 0.0002622 -20.4494189 -6.5341829 32.9991405
0.0000000 -0.3438611 0.8347870 0.000002 -0.004044 0.002121 0.0000192 89.8609568 -50.2594103 -0.0008136 20.4484244 -6.5332846 32.9991669
0.0000000 0.3438608 0.4076729 -0.000000 0.003506 -0.001769 0.0000002 -88.3791625 49.4287671 0.0002076 -19.0081920 5.6906084 33.0175683
-0.0000000 -0.3438608 0.4076729 0.000004 -0.003505 -0.001769 0.0000173 88.3818009 49.4303021 -0.0022961 19.0107687 5.6920680 33.0175636
1.6888480 0.4553919 0.6749821 0.005568 -0.002748 -0.000452 -3.5620815 -14.7788406 -1.4153819 29.3012653 52.5618496 6.2430596 25.7808477
1.7050364 0.4422266 0.7335263 0.005523 -0.002500 -0.000537 -2.6054166 -9.8496659 -2.1547248 31.7505475 54.0067729 14.4480551 25.2682189
1.7122349 0.4228742 0.7945146 0.005214 -0.002162 -0.000717 -2.4756115 -8.6930213 -3.0973206 32.5319934 51.9300694 22.5590412 25.0605740
1.7086175 0.3976723 0.8553017 0.003995 -0.001849 -0.000825 -2.2047034 -7.3430227 -3.7716183 32.6039538 49.1032412 30.7080423 24.7147129
1.6933130 0.3672791 0.9136139 0.002834 -0.001552 -0.000995 -1.8959490 -6.1317328 -4.2662535 31.4720246 45.3525272 38.4193837 24.7377446
1.6662237 0.3327327 0.9673798 0.001276 -0.001156 -0.001185 -1.5010590 -4.8427230 -4.4060575 29.4649528 41.0280389 45.4453082 24.6897721
1.6279185 0.2953207 1.0149445 -0.000118 -0.000838 -0.001420 -1.1239260 -3.7371869 -4.3580649 26.5695913 36.3000669 51.4879374 24.9953414
1.5794690 0.2564114 1.0552022 -0.001548 -0.000543 -0.001716 -0.7799544 -2.7908012 -4.1313983 23.1478708 31.3623504 56.4418132 25.2259518
1.5222478 0.2172856 1.0876340 -0.002559 -0.000377 -0.002044 -0.5010557 -2.0587015 -3.8652150 19.3279323 26.4763905 60.2958762 25.7864508
1.4577352 0.1790217 1.1122470 -0.003483 -0.000237 -0.002377 -0.2740313 -1.4568050 -3.4960672 15.5100064 21.7434721 63.2000732 26.1721151
1.3873769 0.1424438 1.1294486 -0.004007 -0.000173 -0.002674 -0.1101854 -1.0417815 -3.2550744 11.7317783 17.2661124 65.1970095 26.8541128
1.3125125 0.1081311 1.1399162 -0.004460 -0.000160 -0.002896 0.0137160 -0.6953542 -2.9263729 8.2556903 13.1310061 66.5847188 27.2982500
1.2344034 0.0764663 1.1444801 -0.004694 -0.000114 -0.002949 0.1084485 -0.4776938 -2.8784927 5.0696351 9.2837563 67.2919676 27.9812253
1.1543355 0.0476944 1.1440661 -0.005033 -0.000010 -0.002242 0.1933442 -0.3038909 -2.9540565 2.3657504 5.7727339 67.4634026 28.3688628
1.0743559 0.0221334 1.1396973 -0.005151 -0.000113 -0.002832 0.5600267 -0.2857921 -6.3114510 -0.0190453 2.5804630 66.4595280 29.0192514
1.7761334 -0.4295073 0.6834599 0.005723 0.002602 -0.000541 -3.1187019 9.0967782 -1.1335149 38.4462279 -53.3966205 8.2845238 24.1228212
1.7928977 -0.4109270 0.7482733 0.005662 0.002321 -0.000298 -3.0494809 8.0327045 -2.1625260 40.5864010 -51.8932239 17.0347435 23.6754941
1.7972155 -0.3862687 0.8140262 0.004851 0.002106 -0.000266 -2.7492520 6.6863600 -2.9199324 41.4454412 -49.0938120 26.1781393 23.2967568
1.7884659 -0.3558657 0.8783068 0.003630 0.001803 -0.000285 -2.3236564 5.3209095 -3.3703368 40.8485382 -45.3081469 35.0135943 23.1484716
1.7664203 -0.3206894 0.9386577 0.002025 0.001399 -0.000321 -1.8621481 4.0942650 -3.5561157 38.9218349 -40.7270105 43.1596689 23.1528145
1.7315946 -0.2821199 0.9929270 0.000398 0.000977 -0.000507 -1.4367845 3.0973575 -3.5806400 35.7444773 -35.6183175 50.2021656 23.4004991
1.6851583 -0.2417134 1.0395608 -0.001111 0.000609 -0.000803 -1.0691742 2.3141678 -3.5124041 31.7013932 -30.2740893 55.9937308 23.8043331
1.6287020 -0.2009679 1.0777253 -0.002351 0.000346 -0.001206 -0.7590976 1.6989802 -3.3821874 27.1107765 -24.9523881 60.4392910 24.3537289
1.5639705 -0.1611501 1.1072612 -0.003326 0.000148 -0.001663 -0.5101057 1.2313403 -3.2529837 22.3545707 -19.8227019 63.6798443 24.9999783
1.4926453 -0.1232161 1.1285372 -0.003909 0.000111 -0.002114 -0.3026691 0.8488568 -3.0610014 17.6598604 -15.0710135 65.8533877 25.7028795
1.4162054 -0.0878130 1.1422632 -0.004352 0.000046 -0.002504 -0.1427499 0.5601065 -2.9125473 13.2848544 -10.6664231 67.2067449 26.4071989
1.3358553 -0.0553355 1.1493339 -0.004574 0.000045 -0.002771 -0.0165539 0.3227437 -2.7042757 9.2826979 -6.7078075 67.9378476 27.1067337
1.2524542 -0.0259987 1.1506998 -0.004774 0.000009 -0.002811 0.0744182 0.1357501 -2.4346558 5.7387905 -3.1516766 68.3329888 27.7888927
1.1661980 -0.0000000 1.1472787 -0.004893 -0.000000 -0.003139 0.1145801 0.0000000 -1.8546701 2.6202492 0.0000375 68.6178465 28.3901483
1.8598001 -0.3949725 0.6897545 0.006145 0.002569 0.000039 -3.0973300 6.4739241 -0.9805804 48.4043709 -51.3429064 9.4913436 22.3165460
1.8754383 -0.3703256 0.7606327 0.005425 0.002357 0.000077 -2.5406033 4.7527034 -1.5710261 50.8148049 -48.5580878 19.6772541 21.6138776
1.8755807 -0.3397613 0.8312644 0.004472 0.002228 0.000361 -1.9275424 3.2926588 -1.7917868 51.2264777 -44.7908277 29.7743729 21.4066203
1.8603055 -0.3039388 0.8988378 0.002747 0.001723 0.000493 -1.3602083 2.1560593 -1.7351883 49.8134947 -39.9732989 39.3495835 21.2482829
1.8301638 -0.2642167 0.9606782 0.001167 0.001314 0.000445 -1.0228746 1.5256018 -1.7267776 46.4852713 -34.5237432 47.7395433 21.5869795
1.7864506 -0.2223058 1.0146806 -0.000648 0.000768 0.000235 -0.7993229 1.1354925 -1.7689936 41.8958031 -28.7340448 54.6816966 21.9503287
1.7310246 -0.1799274 1.0595761 -0.002000 0.000448 -0.000172 -0.7005269 0.9574553 -2.0506212 36.3251365 -22.9521717 59.9573980 22.7350966
1.6659760 -0.1385581 1.0949562 -0.003187 0.000189 -0.000695 -0.5730688 0.7590491 -2.2783850 30.4843915 -17.4374249 63.7306783 23.4279580
1.5933078 -0.0992998 1.1211058 -0.003821 0.000109 -0.001307 -0.4483547 0.5768069 -2.5464340 24.6168589 -12.3461609 66.1726719 24.4039451
1.5147141 -0.0628753 1.1387678 -0.004363 0.000012 -0.001891 -0.2906908 0.3598168 -2.5959864 19.1676154 -7.7179580 67.6259833 25.1743923
1.4314365 -0.0296999 1.1489124 -0.004489 0.000064 -0.002381 -0.1510393 0.1697433 -2.6444731 14.1140579 -3.6424499 68.2971964 26.1724832
1.3441151 -0.0000000 1.1525708 -0.004769 -0.000000 -0.002709 -0.0245270 0.0000000 -2.4559569 9.7111523 0.0000104 68.5119093 26.8528500
1.2524542 0.0259987 1.1506998 -0.004774 -0.000009 -0.002811 0.0744181 -0.1357499 -2.4346527 5.7387825 3.1516517 68.3329932 27.7888700
1.9390676 -0.3496170 0.6955150 0.005838 0.002613 0.000221 -1.1971717 1.7960067 -0.3364489 59.7992310 -47.2442117 10.8516328 20.1945292
1.9510699 -0.3185969 0.7718036 0.004951 0.002480 0.000733 0.0421711 -0.0558035 0.0233162 62.0670541 -43.4478199 22.2170123 19.6424980
1.9450130 -0.2820520 0.8466154 0.003571 0.002106 0.001049 0.9064787 -1.0734313 0.7592728 61.6777025 -38.4705424 33.3882893 19.4019181
1.9214627 -0.2412066 0.9165782 0.001841 0.001650 0.001318 1.1124456 -1.1889442 1.2885653 58.6989461 -32.7126049 43.4221666 19.5938210
1.8818160 -0.1978593 0.9788504 -0.000003 0.001059 0.001282 0.7908985 -0.7644314 1.2216268 53.6477304 -26.4907382 51.8669361 20.1136776
1.8282339 -0.1539433 1.0315375 -0.001625 0.000593 0.000963 0.2537370 -0.2200759 0.5177162 47.1098297 -20.2689655 58.3213732 20.9356079
1.7632475 -0.1111561 1.0738255 -0.002897 0.000227 0.000397 -0.1692043 0.1283119 -0.4601621 39.9607890 -14.3542506 62.9292582 21.9081079
1.6893169 -0.0707608 1.1058280 -0.003692 0.000072 -0.000336 -0.3716868 0.2299430 -1.3841970 32.7266327 -8.9731576 65.8639253 22.9975827
1.6085050 -0.0335620 1.1282848 -0.004173 -0.000009 -0.001101 -0.3889798 0.1576488 -2.0901727 25.8784864 -4.1724814 67.5136729 24.0926512
1.5222888 -0.0000000 1.1422618 -0.004403 -0.000000 -0.001814 -0.2859049 0.0000000 -2.4541363 19.6590649 0.0000120 68.2249741 25.1485013
1.4314365 0.0296999 1.1489124 -0.004489 -0.000064 -0.002381 -0.1510393 -0.1697432 -2.6444725 14.1140624 3.6424381 68.2971987 26.1724733
1.3358553 0.0553355 1.1493339 -0.004574 -0.000045 -0.002771 -0.0165539 -0.3227431 -2.7042712 9.2827022 6.7078048 67.9378511 27.1067478
2.0110272 -0.2919404 0.7008901 0.005247 0.002611 0.000537 3.9750936 -4.1905529 1.0150565 72.0622139 -40.9875689 12.1952077 17.9613057
2.0168235 -0.2545944 0.7817546 0.004145 0.002311 0.001153 5.9262150 -5.3623423 3.0062507 73.5893527 -35.9077107 24.7787453 17.3729245
2.0023156 -0.2126871 0.8595971 0.002623 0.001936 0.001780 6.1827314 -4.8119596 4.7960590 71.5751059 -29.8929345 36.6097417 17.5192608
1.9687451 -0.1680500 0.9306109 0.000763 0.001252 0.002035 5.0052100 -3.3137745 5.4196321 66.5294093 -23.3167571 46.8891094 17.9433734
1.9184747 -0.1227974 0.9920006 -0.000920 0.000791 0.001950 3.0722435 -1.6731788 4.4787880 59.1953868 -16.7644944 54.9721415 18.9690122
1.8545162 -0.0788452 1.0422972 -0.002424 0.000290 0.001493 1.3699471 -0.5644473 2.6652972 50.7152264 -10.5074282 60.7823468 20.0501065
1.7799154 -0.0376186 1.0812641 -0.003308 0.000156 0.000709 0.2348496 -0.0571439 0.6161285 41.9146176 -4.9296126 64.5315755 21.4695180
1.6972765 -0.0000000 1.1095502 -0.003989 -0.000000 -0.000174 -0.2644186 0.0000000 -0.9638945 33.5566215 0.0000084 66.6273766 22.6796725
1.6085050 0.0335620 1.1282848 -0.004173 0.000009 -0.001101 -0.3889797 -0.1576488 -2.0901726 25.8784863 4.1724710 67.5136734 24.0926322
1.5147141 0.0628753 1.1387678 -0.004363 -0.000012 -0.001891 -0.2906907 -0.3598167 -2.5959861 19.1676155 7.7179446 67.6259851 25.1744048
1.4162054 0.0878130 1.1422632 -0.004352 -0.000046 -0.002504 -0.1427499 -0.5601068 -2.9125488 13.2848455 10.6664429 67.2067393 26.4071978
2.0716259 -0.2212821 0.7055916 0.004439 0.002336 0.000806 13.2167528 -9.2335326 3.1420448 83.8658800 -31.9670519 13.4344904 15.7414832
2.0686656 -0.1784224 0.7898563 0.003203 0.001871 0.001718 14.5995211 -8.2551459 6.9681016 83.7354840 -25.7476296 26.8445119 15.5245660
2.0436719 -0.1327175 0.8692162 0.001663 0.001330 0.002333 12.6901989 -5.6126427 9.3586733 79.4837982 -18.9928971 39.0872324 15.9509051
1.9988551 -0.0864270 0.9397304 -0.000062 0.000758 0.002622 8.7584603 -2.7768053 9.1125458 71.9232667 -12.1781868 49.1536306 16.9685999
1.9375730 -0.0416628 0.9989491 -0.001538 0.000216 0.002342 4.7247993 -0.8316607 6.6941310 62.3094621 -5.7068981 56.6650162 18.3288946
1.8635000 -0.0000000 1.0460055 -0.002628 -0.000000 0.001659 1.8326152 -0.0000000 3.5099418 52.0058205 0.0000026 61.6577452 19.8840398
1.7799154 0.0376186 1.0812641 -0.003308 -0.000156 0.000709 0.2348495 0.0571439 0.6161283 41.9146163 4.9296058 64.5315777 21.4695065
1.6893169 0.0707608 1.1058280 -0.003692 -0.000072 -0.000336 -0.3716867 -0.2299429 -1.3841966 32.7266363 8.9731483 65.8639256 22.9975959
1.5933078 0.0992998 1.1211058 -0.003821 -0.000109 -0.001307 -0.4483545 -0.5768066 -2.5464326 24.6168553 12.3461815 66.1726702 24.4039533
1.4926453 0.1232161 1.1285372 -0.003909 -0.000111 -0.002114 -0.3026690 -0.8488567 -3.0610011 17.6598673 15.0710058 65.8533895 25.7028634
2.1160556 -0.1386318 0.7091594 0.003604 0.001644 0.001038 24.6571205 -9.8357581 5.5900990 93.3171656 -20.3315799 14.3500220 13.8758461
2.1021887 -0.0921315 0.7952375 0.002479 0.001074 0.002008 23.2747610 -6.3321597 10.7121199 90.8319454 -13.4583677 28.2440227 14.0257798
2.0654733 -0.0451639 0.8743842 0.001073 0.000488 0.002667 17.3936234 -2.4962967 12.5092558 83.8805067 -6.5219280 40.3932325 15.0795862
2.0092199 -0.0000000 0.9429065 -0.000344 -0.000000 0.002771 10.4088424 -0.0000001 10.6874050 73.8579196 0.0000079 49.9863539 16.4662114
1.9375730 0.0416628 0.9989491 -0.001538 -0.000215 0.002342 4.7247974 0.8316602 6.6941282 62.3094617 5.7068914 56.6650123 18.3288772
1.8545162 0.0788452 1.0422972 -0.002424 -0.000290 0.001493 1.3699467 0.5644470 2.6652964 50.7152262 10.5074271 60.7823460 20.0501204
1.7632475 0.1111561 1.0738255 -0.002897 -0.000227 0.000397 -0.1692048 -0.1283123 -0.4601634 39.9607863 14.3542610 62.9292533 21.9081071
1.6659760 0.1385581 1.0949562 -0.003187 -0.000189 -0.000695 -0.5730690 -0.7590494 -2.2783859 30.4843904 17.4374171 63.7306812 23.4279414
1.5639705 0.1611501 1.1072612 -0.003326 -0.000148 -0.001663 -0.5101059 -1.2313407 -3.2529846 22.3545739 19.8226897 63.6798457 24.9999841
2.1397206 -0.0472806 0.7111042 0.003076 0.000589 0.001170 32.9712720 -4.2771092 7.3002434 98.5164336 -6.9571888 14.8182746 12.7990520
2.1138255 -0.0000000 0.7971331 0.002176 -0.000000 0.002173 26.8882705 -0.0000001 12.2266233 93.3195117 -0.0000018 28.6869395 13.5853539
2.0654733 0.0451638 0.8743842 0.001073 -0.000488 0.002667 17.3936292 2.4962974 12.5092600 83.8805103 6.5219247 40.3932424 15.0795719
1.9988551 0.0864270 0.9397304 -0.000062 -0.000758 0.002622 8.7584609 2.7768053 9.1125464 71.9232720 12.1781746 49.1536297 16.9686134
1.9184747 0.1227974 0.9920006 -0.000920 -0.000791 0.001950 3.0722431 1.6731786 4.4787874 59.1953808 16.7645047 54.9721419 18.9690173
1.8282339 0.1539433 1.0315375 -0.001625 -0.000593 0.000963 0.2537379 0.2200768 0.5177182 47.1098364 20.2689547 58.3213772 20.9355909
1.7310246 0.1799274 1.0595761 -0.002000 -0.000448 -0.000172 -0.7005272 -0.9574556 -2.0506220 36.3251374 22.9521685 59.9573990 22.7351127
1.6287020 0.2009679 1.0777253 -0.002351 -0.000346 -0.001206 -0.7590974 -1.6989797 -3.3821866 27.1107744 24.9524024 60.4392843 24.3537358
2.1397206 0.0472806 0.7111042 0.003076 -0.000589 0.001170 32.9712689 4.2771086 7.3002427 98.5164311 6.9571857 14.8182706 12.7990356
2.1021887 0.0921315 0.7952375 0.002479 -0.001074 0.002008 23.2747603 6.3321593 10.7121196 90.8319441 13.4583738 28.2440202 14.0257955
2.0436719 0.1327175 0.8692162 0.001663 -0.001330 0.002333 12.6902009 5.6126435 9.3586747 79.4837991 18.9929046 39.0872297 15.9509055
1.9687451 0.1680499 0.9306109 0.000763 -0.001252 0.002035 5.0052122 3.3137758 5.4196344 66.5294092 23.3167600 46.8891145 17.9433582
1.8818160 0.1978593 0.9788504 -0.000003 -0.001059 0.001282 0.7908992 0.7644320 1.2216279 53.6477372 26.4907328 51.8669349 20.1136867
1.7864506 0.2223058 1.0146806 -0.000648 -0.000768 0.000235 -0.7993223 -1.1354917 -1.7689925 41.8957919 28.7340600 54.6816952 21.9503356
1.6851583 0.2417134 1.0395608 -0.001111 -0.000609 -0.000803 -1.0691741 -2.3141675 -3.5124037 31.7013998 30.2740783 55.9937352 23.8043093
2.1160556 0.1386318 0.7091594 0.003604 -0.001644 0.001038 24.6571218 9.8357584 5.5900993 93.3171632 20.3315855 14.3500283 13.8758481
2.0686656 0.1784224 0.7898563 0.003203 -0.001871 0.001718 14.5995199 8.2551451 6.9681011 83.7354889 25.7476148 26.8445125 15.5245475
2.0023156 0.2126871 0.8595971 0.002623 -0.001935 0.001780 6.1827300 4.8119584 4.7960579 71.5751056 29.8929315 36.6097420 17.5192762
1.9214627 0.2412066 0.9165782 0.001841 -0.001650 0.001318 1.1124433 1.1889417 1.2885626 58.6989433 32.7126036 43.4221604 19.5938241
1.8301638 0.2642167 0.9606782 0.001167 -0.001314 0.000445 -1.0228747 -1.5256018 -1.7267777 46.4852716 34.5237397 47.7395489 21.5869655
1.7315946 0.2821199 0.9929270 0.000398 -0.000977 -0.000507 -1.4367844 -3.0973572 -3.5806398 35.7444899 35.6183104 50.2021648 23.4005084
2.0716259 0.2212821 0.7055916 0.004439 -0.002336 0.000806 13.2167516 9.2335317 3.1420445 83.8658806 31.9670491 13.4344812 15.7414967
2.0168235 0.2545944 0.7817546 0.004145 -0.002311 0.001153 5.9262138 5.3623411 3.0062501 73.5893395 35.9077239 24.7787459 17.3729313
1.9450130 0.2820520 0.8466154 0.003571 -0.002106 0.001049 0.9064784 1.0734310 0.7592726 61.6777075 38.4705348 33.3882894 19.4018968
1.8603055 0.3039388 0.8988378 0.002747 -0.001723 0.000493 -1.3602085 -2.1560597 -1.7351887 49.8134930 39.9733011 39.3495835 21.2482974
1.7664203 0.3206894 0.9386577 0.002025 -0.001399 -0.000321 -1.8621484 -4.0942654 -3.5561162 38.9218272 40.7270152 43.1596622 23.1528173
2.0110272 0.2919404 0.7008901 0.005247 -0.002611 0.000537 3.9750925 4.1905517 1.0150563 72.0622165 40.9875631 12.1952150 17.9612883
1.9510699 0.3185969 0.7718036 0.004951 -0.002480 0.000733 0.0421719 0.0558046 0.0233166 62.0670679 43.4478112 22.2170068 19.6425079
1.8755807 0.3397613 0.8312644 0.004472 -0.002228 0.000361 -1.9275415 -3.2926573 -1.7917860 51.2264652 44.7908387 29.7743749 21.4066312
1.7884659 0.3558657 0.8783068 0.003630 -0.001803 -0.000285 -2.3236561 -5.3209088 -3.3703364 40.8485536 45.3081371 35.0135972 23.1484488
1.9390676 0.3496170 0.6955150 0.005838 -0.002613 0.000221 -1.1971719 -1.7960068 -0.3364489 59.7992213 47.2442161 10.8516320 20.1945327
1.8754383 0.3703256 0.7606327 0.005425 -0.002357 0.000077 -2.5406034 -4.7527036 -1.5710262 50.8148020 48.5580895 19.6772612 21.6138623
1.7972155 0.3862687 0.8140262 0.004851 -0.002106 -0.000266 -2.7492515 -6.6863587 -2.9199319 41.4454525 49.0938077 26.1781352 23.2967617
1.8598001 0.3949725 0.6897545 0.006145 -0.002569 0.000039 -3.0973305 -6.4739251 -0.9805805 48.4043752 51.3429059 9.4913377 22.3165613
1.7928977 0.4109270 0.7482733 0.005662 -0.002321 -0.000298 -3.0494816 -8.0327063 -2.1625265 40.5863959 51.8932217 17.0347392 23.6755000
1.7761334 0.4295073 0.6834599 0.005723 -0.002602 -0.000541 -3.1187019 -9.0967780 -1.1335148 38.4462381 53.3966137 8.2845289 24.1227933
1.7459592 0.4428779 0.6212299 0.005552 -0.001784 -0.000001 -3.2636873 -10.9607655 0.0000001 35.2921541 54.6792197 -0.0002113 24.8412378
1.8279030 0.4140692 0.6212299 0.006011 -0.002450 0.000000 -3.1500703 -7.5696322 0.0000000 44.3768982 52.9410538 -0.0002358 22.9755214
1.9088189 0.3748237 0.6212299 0.006024 -0.002521 -0.000001 -2.3726118 -4.1278079 0.0000000 55.1637984 49.8227162 0.0000515 21.1267167
1.9848500 0.3236538 0.6212299 0.005729 -0.002657 0.000000 1.2485511 1.5524672 -0.0000000 67.2245598 44.7742755 -0.0001424 18.8170903
2.0520315 0.2594532 0.6212299 0.005043 -0.002499 -0.000001 9.0011604 7.6994355 -0.0000002 79.7519961 37.1241176 0.0001199 16.5965476
2.1056046 0.1823002 0.6212299 0.004239 -0.002044 0.000000 20.6955001 11.1005010 -0.0000004 90.9112423 26.6669893 -0.0001071 14.3790876
2.1405185 0.0942993 0.6212299 0.003570 -0.001174 -0.000001 32.1247061 8.3054739 -0.0000007 98.5544312 13.9003183 0.0001116 12.9051214
2.1526897 -0.0000000 0.6212299 0.003289 -0.000000 -0.000000 37.1108155 -0.0000001 -0.0000009 101.2781803 0.0000072 -0.0000821 12.2309925
2.1405185 -0.0942993 0.6212299 0.003571 0.001174 -0.000001 32.1247061 -8.3054740 -0.0000007 98.5544291 -13.9003305 0.0001151 12.9051069
2.1056046 -0.1823002 0.6212299 0.004239 0.002044 0.000000 20.6954988 -11.1005004 -0.0000004 90.9112430 -26.6669827 -0.0001103 14.3791024
2.0520315 -0.2594532 0.6212299 0.005043 0.002499 -0.000001 9.0011591 -7.6994344 -0.0000002 79.7519922 -37.1241220 0.0001187 16.5965479
1.9848500 -0.3236538 0.6212299 0.005729 0.002657 0.000000 1.2485495 -1.5524653 -0.0000000 67.2245656 -44.7742648 -0.0001379 18.8170705
1.9088189 -0.3748237 0.6212299 0.006024 0.002521 -0.000001 -2.3726122 4.1278086 0.0000000 55.1637777 -49.8227298 0.0000523 21.1267426
1.8279030 -0.4140692 0.6212299 0.006011 0.002450 0.000000 -3.1500703 7.5696322 0.0000000 44.3769272 -52.9410385 -0.0002507 22.9755053
1.7459592 -0.4428779 0.6212299 0.005552 0.001784 -0.000001 -3.2636872 10.9607652 0.0000001 35.2921226 -54.6792327 -0.0001882 24.8412327
1.6888480 -0.4553919 0.5674777 0.005566 0.002747 0.000448 -3.5620745 14.7788117 1.4153793 29.3022873 -52.5619192 -6.2415668 25.7812384
1.7050364 -0.4422266 0.5089334 0.005524 0.002500 0.000539 -2.6054217 9.8496852 2.1547292 31.7502326 -54.0064942 -14.4492916 25.2678502
1.7122349 -0.4228742 0.4479452 0.005212 0.002162 0.000715 -2.4756048 8.6929978 3.0973123 32.5324684 -51.9303556 -22.5582829 25.0611183
1.7086175 -0.3976723 0.3871581 0.003996 0.001848 0.000826 -2.2047085 7.3430399 3.7716273 32.6036441 -49.1028661 -30.7087571 24.7141700
1.6933130 -0.3672791 0.3288459 0.002833 0.001552 0.000994 -1.8959450 6.1317199 4.2662447 31.4722079 -45.3529395 -38.4188548 24.7383433
1.6662237 -0.3327327 0.2750800 0.001278 0.001155 0.001185 -1.5010617 4.8427318 4.4060658 29.4644792 -41.0274276 -45.4460388 24.6891452
1.6279184 -0.2953207 0.2275153 -0.000117 0.000839 0.001418 -1.1239250 3.7371838 4.3580616 26.5697541 -36.3008121 -51.4872550 24.9959550
1.5794690 -0.2564114 0.1872576 -0.001545 0.000542 0.001715 -0.7799551 2.7908040 4.1314027 23.1472675 -31.3613808 -56.4425276 25.2250783
1.5222478 -0.2172856 0.1548257 -0.002558 0.000379 0.002042 -0.5010572 2.0587077 3.8652270 19.3276783 -26.4775891 -60.2951667 25.7872701
1.4577352 -0.1790217 0.1302128 -0.003482 0.000235 0.002376 -0.2740317 1.4568069 3.4960721 15.5096014 -21.7421873 -63.2005614 26.1708136
1.3873768 -0.1424438 0.1130112 -0.004004 0.000175 0.002671 -0.1101865 1.0417924 3.2551087 11.7311824 -17.2679295 -65.1963123 26.8548606
1.3125125 -0.1081311 0.1025436 -0.004458 0.000158 0.002894 0.0137161 0.6953573 2.9263857 8.2549869 -13.1296701 -66.5848745 27.2969417
1.2344034 -0.0764663 0.0979797 -0.004692 0.000116 0.002946 0.1084502 0.4777011 2.8785365 5.0691794 -9.2862949 -67.2914072 27.9814677
1.1543355 -0.0476944 0.0983936 -0.005031 0.000009 0.002239 0.1933434 0.3038895 2.9540430 2.3651218 -5.7719471 -67.4632508 28.3672756
1.0743559 -0.0221334 0.1027625 -0.005149 0.000118 0.002829 0.5600055 0.2857812 6.3112104 -0.0198023 -2.5845687 -66.4595232 29.0197470
1.7761334 0.4295073 0.5589998 0.005725 -0.002602 0.000540 -3.1187096 -9.0968004 1.1335177 38.4454697 53.3966980 -8.2844167 24.1224350
1.7928977 0.4109270 0.4941865 0.005661 -0.002321 0.000296 -3.0494761 -8.0326918 2.1625228 40.5866760 51.8933120 -17.0343765 23.6758021
1.7972155 0.3862687 0.4284335 0.004853 -0.002106 0.000265 -2.7492589 -6.6863769 2.9199400 41.4450899 49.0936738 -26.1783946 23.2962941
1.7884659 0.3558657 0.3641530 0.003629 -0.001803 0.000283 -2.3236498 -5.3208945 3.3703274 40.8488980 45.3083875 -35.0131640 23.1489409
1.7664203 0.3206894 0.3038021 0.002025 -0.001398 0.000320 -1.8621528 -4.0942753 3.5561249 38.9217061 40.7267361 -43.1599118 23.1522536
1.7315946 0.2821199 0.2495328 0.000397 -0.000977 0.000505 -1.4367802 -3.0973482 3.5806295 35.7449470 35.6187487 -50.2017317 23.4011439
1.6851583 0.2417134 0.2028989 -0.001110 -0.000608 0.000802 -1.0691749 -2.3141693 3.5124066 31.7012432 30.2735195 -55.9941420 23.8038153
1.6287020 0.2009679 0.1647345 -0.002353 -0.000347 0.001204 -0.7590946 -1.6989734 3.3821741 27.1116672 24.9531099 -60.4388265 24.3544151
1.5639705 0.1611501 0.1351986 -0.003325 -0.000147 0.001662 -0.5101043 -1.2313370 3.2529751 22.3544184 19.8216759 -63.6803519 24.9995879
1.4926453 0.1232161 0.1139226 -0.003911 -0.000112 0.002112 -0.3026668 -0.8488507 3.0609796 17.6608314 15.0719168 -65.8531247 25.7038903
1.4162054 0.0878130 0.1001966 -0.004352 -0.000044 0.002503 -0.1427488 -0.5601025 2.9125264 13.2850505 10.6647019 -67.2072304 26.4067577
1.3358553 0.0553355 0.0931259 -0.004574 -0.000046 0.002769 -0.0165536 -0.3227378 2.7042265 9.2837325 6.7087122 -67.9378304 27.1080600
1.2524542 0.0259987 0.0917600 -0.004773 -0.000005 0.002809 0.0744170 -0.1357478 2.4346148 5.7386676 3.1487497 -68.3333346 27.7889997
1.1661980 -0.0000000 0.0951811 -0.004893 0.000000 0.003137 0.1145872 0.0000000 1.8547841 2.6215364 -0.0000137 -68.6178259 28.3912659
1.8598001 0.3949725 0.5527053 0.006143 -0.002568 -0.000041 -3.0973234 -6.4739102 0.9805783 48.4048526 51.3428650 -9.4910794 22.3168117
1.8754383 0.3703256 0.4818271 0.005426 -0.002357 -0.000076 -2.5406072 -4.7527108 1.5710286 50.8145693 48.5579765 -19.6777658 21.6136778
1.8755807 0.3397613 0.4111953 0.004472 -0.002228 -0.000363 -1.9275359 -3.2926478 1.7917809 51.2267077 44.7909951 -29.7740558 21.4069334
1.8603055 0.3039387 0.3436220 0.002749 -0.001723 -0.000493 -1.3602144 -2.1560691 1.7351962 49.8131644 39.9730037 -39.3500604 21.2479486
1.8301638 0.2642167 0.2817816 0.001167 -0.001314 -0.000446 -1.0228701 -1.5255950 1.7267700 46.4853077 34.5240513 -47.7393277 21.5873601
1.7864506 0.2223058 0.2277792 -0.000647 -0.000767 -0.000235 -0.7993282 -1.1355000 1.7690055 41.8954354 28.7336238 -54.6819947 21.9497546
1.7310246 0.1799274 0.1828837 -0.001999 -0.000449 0.000170 -0.7005252 -0.9574529 2.0506162 36.3250149 22.9527016 -59.9572067 22.7355374
1.6659760 0.1385581 0.1475035 -0.003184 -0.000188 0.000694 -0.5730748 -0.7590569 2.2784088 30.4837016 17.4368770 -63.7308585 23.4272213
1.5933078 0.0992998 0.1213540 -0.003820 -0.000110 0.001305 -0.4483544 -0.5768065 2.5464323 24.6168174 12.3471164 -66.1724545 24.4041912
1.5147141 0.0628753 0.1036920 -0.004360 -0.000012 0.001890 -0.2906955 -0.3598227 2.5960293 19.1667069 7.7174693 -67.6259282 25.1734194
1.4314365 0.0296999 0.0935474 -0.004487 -0.000066 0.002379 -0.1510393 -0.1697433 2.6444739 14.1137226 3.6440640 -68.2971303 26.1727482
1.3441151 -0.0000000 0.0898889 -0.004768 0.000000 0.002707 -0.0245276 0.0000000 2.4560253 9.7105845 -0.0000087 -68.5116426 26.8512348
1.2524542 -0.0259987 0.0917600 -0.004773 0.000005 0.002809 0.0744176 0.1357489 2.4346354 5.7386444 -3.1487378 -68.3333143 27.7890361
1.9390676 0.3496170 0.5469447 0.005839 -0.002613 -0.000222 -1.1971785 -1.7960168 0.3364508 59.7989092 47.2442945 -10.8515878 20.1943234
1.9510699 0.3185969 0.4706562 0.004950 -0.002480 -0.000735 0.0421752 0.0558089 -0.0233184 62.0672775 43.4478363 -22.2167596 19.6426715
1.9450130 0.2820520 0.3958444 0.003572 -0.002106 -0.001049 0.9064724 1.0734238 -0.7592675 61.6775046 38.4704901 -33.3884130 19.4016666
1.9214627 0.2412066 0.3258816 0.001840 -0.001650 -0.001321 1.1124517 1.1889507 -1.2885724 58.6993507 32.7127903 -43.4217969 19.5941009
1.8818160 0.1978593 0.2636093 -0.000002 -0.001059 -0.001282 0.7908950 0.7644280 -1.2216216 53.6475818 26.4905174 -51.8671190 20.1134539
1.8282339 0.1539433 0.2109223 -0.001626 -0.000594 -0.000965 0.2537443 0.2200823 -0.5177312 47.1103988 20.2692491 -58.3211134 20.9360592
1.7632475 0.1111561 0.1686343 -0.002896 -0.000227 -0.000398 -0.1692053 -0.1283126 0.4601647 39.9607941 14.3538051 -62.9293959 21.9078569
1.6893169 0.0707608 0.1366318 -0.003693 -0.000072 0.000335 -0.3716795 -0.2299385 1.3841699 32.7274613 8.9734175 -65.8638093 22.9982802
1.6085049 0.0335620 0.1141750 -0.004172 0.000010 0.001100 -0.3889792 -0.1576486 2.0901697 25.8783211 4.1715924 -67.5138170 24.0926354
1.5222888 -0.0000000 0.1001980 -0.004405 -0.000000 0.001812 -0.2859000 0.0000000 2.4540944 19.6603678 -0.0000021 -68.2249704 25.1492777
1.4314365 -0.0296999 0.0935474 -0.004487 0.000066 0.002379 -0.1510393 0.1697434 2.6444743 14.1137086 -3.6440589 -68.2971312 26.1727810
1.3358553 -0.0553355 0.0931259 -0.004575 0.000046 0.002769 -0.0165536 0.3227381 2.7042291 9.2837525 -6.7087036 -67.9378287 27.1080241
2.0110271 0.2919404 0.5415697 0.005247 -0.002610 -0.000538 3.9750972 4.1905567 -1.0150576 72.0623931 40.9875142 -12.1951899 17.9614367
2.0168235 0.2545944 0.4607051 0.004145 -0.002311 -0.001153 5.9262090 5.3623369 -3.0062479 73.5891799 35.9076862 -24.7789727 17.3728000
2.0023156 0.2126871 0.3828627 0.002623 -0.001935 -0.001781 6.1827377 4.8119644 -4.7960641 71.5751891 29.8929661 -36.6097214 17.5194422
1.9687451 0.1680499 0.3118488 0.000765 -0.001252 -0.002035 5.0052017 3.3137689 -5.4196233 66.5290675 23.3166145 -46.8893538 17.9431040
1.9184747 0.1227974 0.2504592 -0.000920 -0.000791 -0.001951 3.0722459 1.6731801 -4.4787918 59.1954400 16.7646887 -54.9720740 18.9691508
1.8545162 0.0788452 0.2001626 -0.002422 -0.000289 -0.001493 1.3699367 0.5644429 -2.6652770 50.7146601 10.5072481 -60.7824915 20.0496906
1.7799153 0.0376186 0.1611957 -0.003307 -0.000156 -0.000710 0.2348511 0.0571443 -0.6161324 41.9145005 4.9300563 -64.5316010 21.4696357
1.6972765 -0.0000000 0.1329096 -0.003987 -0.000000 0.000173 -0.2644279 0.0000000 0.9639283 33.5560089 -0.0000001 -66.6273279 22.6788824
1.6085049 -0.0335620 0.1141750 -0.004172 -0.000010 0.001100 -0.3889794 0.1576487 2.0901709 25.8783039 -4.1715908 -67.5138192 24.0926636
1.5147141 -0.0628753 0.1036920 -0.004360 0.000011 0.001890 -0.2906955 0.3598227 2.5960290 19.1667244 -7.7174699 -67.6259264 25.1733887
1.4162054 -0.0878130 0.1001966 -0.004352 0.000044 0.002503 -0.1427487 0.5601021 2.9125246 13.2850444 -10.6647081 -67.2072312 26.4067587
2.0716259 0.2212821 0.5368681 0.004439 -0.002336 -0.000806 13.2167469 9.2335285 -3.1420439 83.8657632 31.9671016 -13.4345137 15.7413981
2.0686656 0.1784224 0.4526034 0.003202 -0.001871 -0.001720 14.5995255 8.2551484 -6.9681044 83.7356603 25.7476273 -26.8442823 15.5246524
2.0436719 0.1327175 0.3732436 0.001664 -0.001331 -0.002334 12.6901949 5.6126409 -9.3586710 79.4837328 18.9929160 -39.0872520 15.9508106
1.9988551 0.0864270 0.3027294 -0.000062 -0.000758 -0.002623 8.7584668 2.7768073 -9.1125530 71.9236333 12.1782285 -49.1534034 16.9688425
1.9375730 0.0416628 0.2435106 -0.001537 -0.000216 -0.002342 4.7247971 0.8316602 -6.6941281 62.3093785 5.7067639 -56.6650897 18.3288599
1.8635000 -0.0000000 0.1964543 -0.002629 0.000000 -0.001661 1.8326247 -0.0000000 -3.5099602 52.0065385 -0.0000042 -61.6575241 19.8843905
1.7799153 -0.0376186 0.1611957 -0.003307 0.000156 -0.000710 0.2348505 -0.0571441 -0.6161309 41.9144938 -4.9300551 -64.5316015 21.4696571
1.6893169 -0.0707608 0.1366318 -0.003693 0.000072 0.000335 -0.3716795 0.2299385 1.3841697 32.7274721 -8.9734201 -65.8638066 22.9982556