# volRat = 0.650000
# viscRat = 5.000000
# alpha = 1.000000
# shRate = 2.750000
# tnum = 4500
# time = 3.922364
VARIABLES = X, Y, Z, U, V, W, F_B0, F_B1, F_B2, F_0, F_1, F_2, T
ZONE N=2562 E=5120 F=FEPOINT ET=TRIANGLE
1.6629784 0.4617453 0.6212299 0.003485 -0.000914 0.000001 5.0557325 23.8039959 0.0000007 30.5207407 71.7966778 -0.0006168 25.8269407
-1.6629784 0.4617453 0.6212299 -0.003485 -0.000914 0.000001 -5.0557160 23.8039980 0.0000015 -30.5207281 71.7966795 -0.0006162 25.8269420
1.6629784 -0.4617451 0.6212299 0.003465 0.000902 -0.000000 5.0554256 -23.8026456 0.0000015 30.5310761 -71.7888135 -0.0001628 25.8124416
-1.6629784 -0.4617451 0.6212299 -0.003465 0.000902 -0.000000 -5.0554425 -23.8026465 0.0000007 -30.5310984 -71.7888143 -0.0001635 25.8124459
0.9871406 0.0000000 1.1299957 -0.003048 -0.000028 -0.000535 -2.3245748 -0.0000565 23.0713715 -2.6657000 0.0179200 77.7069938 29.0637214
0.9871406 0.0000000 0.1124644 -0.003045 -0.000023 0.000547 -2.3263472 -0.0000251 -23.0890407 -2.6677828 0.0147084 -77.7241628 29.0629764
-0.9871406 0.0000000 1.1299957 0.003048 -0.000028 -0.000535 2.3245745 0.0000182 23.0713688 2.6657002 0.0179629 77.7069918 29.0637230
-0.9871406 0.0000000 0.1124644 0.003045 -0.000023 0.000547 2.3263450 -0.0000096 -23.0890186 2.6677810 0.0147186 -77.7241416 29.0629780
0.0000000 0.3455977 0.8378129 -0.000000 0.007793 0.004456 0.0000260 -92.3514581 -52.0772501 0.0000242 -25.4827194 -9.3701546 32.8872355
0.0000000 -0.3455926 0.8378100 -0.000000 0.003230 -0.001388 0.0000038 80.8042085 -45.5742769 0.0000155 14.4518771 -3.4597263 32.7582334
0.0000000 0.3455974 0.4046471 -0.000000 0.007228 -0.004079 0.0000011 -89.9636674 50.7265250 0.0000006 -23.1248235 8.0113499 32.9041353
-0.0000000 -0.3455925 0.4046498 -0.000000 0.003052 0.001297 0.0000042 81.1112160 45.7474494 0.0000161 14.7483352 3.6310239 32.7608482
1.6855621 0.4550013 0.6750191 0.004980 -0.001144 -0.000139 -3.7164954 -15.9133732 -1.5272150 28.3690959 50.8867486 6.0850946 25.6117106
1.7019192 0.4419016 0.7335983 0.004792 -0.001183 -0.000184 -2.5626523 -9.9839938 -2.1869523 31.0212502 53.3996363 14.3331490 25.0872818
1.7092276 0.4225505 0.7946029 0.004361 -0.001101 -0.000270 -2.4408095 -8.8246563 -3.1481596 31.8017731 51.3459846 22.3795672 24.8869182
1.7056493 0.3972809 0.8553727 0.003142 -0.000803 -0.000210 -2.1870757 -7.4975921 -3.8559834 31.8637526 48.5043509 30.4439425 24.5326778
1.6902981 0.3667585 0.9136197 0.002031 -0.000498 -0.000167 -1.8825872 -6.2688366 -4.3679634 30.7501432 44.7783990 38.0739037 24.5624582
1.6630615 0.3320407 0.9672606 0.000564 -0.000096 -0.000120 -1.4886733 -4.9506325 -4.5120994 28.7802763 40.4839354 45.0271268 24.5024930
1.6244956 0.2944424 1.0146347 -0.000659 0.000209 -0.000081 -1.1118607 -3.8194832 -4.4637940 25.9260887 35.7915785 50.9949719 24.8190247
1.5756636 0.2553632 1.0546387 -0.001875 0.000473 -0.000075 -0.7683581 -2.8516861 -4.2332891 22.5632283 30.8909761 55.8740231 25.0410355
1.5179336 0.2161142 1.0867656 -0.002609 0.000578 -0.000105 -0.4897945 -2.1024664 -3.9612726 18.8131945 26.0473788 59.6633195 25.6092294
1.4527876 0.1777983 1.1110423 -0.003197 0.000612 -0.000161 -0.2636820 -1.4867964 -3.5836297 15.0744924 21.3685943 62.5105861 25.9915695
1.3816807 0.1412554 1.1279029 -0.003337 0.000540 -0.000224 -0.1011361 -1.0662489 -3.3491733 11.3859401 16.9476647 64.4537770 26.6839922
1.3059733 0.1070685 1.1380554 -0.003388 0.000416 -0.000281 0.0216392 -0.7128958 -3.0189370 8.0167892 12.8707413 65.8129566 27.1175817
1.2269625 0.0756118 1.1423625 -0.003182 0.000292 -0.000323 0.1169988 -0.4952246 -3.0054440 4.9359570 9.0912794 66.4813444 27.8171393
1.1459872 0.0471094 1.1417815 -0.003044 0.000160 -0.000344 0.1507358 -0.2351901 -2.3044602 2.2965604 5.7354402 67.4196748 28.1917011
1.0651736 0.0218470 1.1373629 -0.002822 -0.000017 -0.000369 0.5496180 -0.2823277 -6.2937702 0.0806316 2.5110129 65.8047561 28.8524259
1.7738963 -0.4295158 0.6835261 0.004768 0.001459 -0.000367 -3.2002601 9.5705619 -1.1938799 37.5821440 -52.5416821 8.1940255 23.9466458
1.7908403 -0.4109939 0.7483960 0.004516 0.001564 -0.000047 -3.0367742 8.1914015 -2.2071312 39.8018282 -51.3765185 16.9136564 23.5008063
1.7952397 -0.3863139 0.8141813 0.003638 0.001399 0.000106 -2.7671841 6.8875515 -3.0100606 40.6405840 -48.5452965 25.9721443 23.1156334
1.7864728 -0.3558125 0.8784515 0.002430 0.001097 0.000265 -2.3462962 5.4983186 -3.4854565 40.0492582 -44.7929875 34.7199632 22.9687185
1.7643006 -0.3204776 0.9387312 0.000877 0.000659 0.000415 -1.8828123 4.2387728 -3.6851822 38.1480838 -40.2373702 42.7937005 22.9685052
1.7292295 -0.2817177 0.9928558 -0.000617 0.000234 0.000489 -1.4516701 3.2083958 -3.7138005 35.0007627 -35.1738077 49.7453426 23.2215372
1.6824228 -0.2411233 1.0392687 -0.001947 -0.000161 0.000463 -1.0776327 2.3966349 -3.6440510 31.0068233 -29.8560116 55.4657334 23.6202098
1.6254678 -0.2002269 1.0771448 -0.002922 -0.000378 0.000392 -0.7614335 1.7575010 -3.5071909 26.4710230 -24.5901966 59.8254810 24.1807033
1.5601089 -0.1603238 1.1063435 -0.003587 -0.000531 0.000248 -0.5074682 1.2711054 -3.3688968 21.7869208 -19.4991077 63.0054158 24.8226074
1.4880318 -0.1223901 1.1272594 -0.003803 -0.000451 0.000110 -0.2972172 0.8752025 -3.1691569 17.1778757 -14.8140375 65.1137783 25.5361113
1.4107283 -0.0870809 1.1406319 -0.003836 -0.000407 -0.000048 -0.1355618 0.5762106 -3.0118266 12.8952789 -10.4558207 66.4350133 26.2388034
1.3294298 -0.0547861 1.1473876 -0.003628 -0.000223 -0.000168 -0.0091679 0.3317218 -2.7967892 9.0052532 -6.5861883 67.1390304 26.9460509
1.2450417 -0.0257036 1.1485092 -0.003369 -0.000151 -0.000269 0.0791647 0.1363418 -2.4627728 5.5738124 -3.0721335 67.6018315 27.6235990
1.1578306 0.0000000 1.1449480 -0.003035 0.000015 -0.000318 0.1601785 0.0000010 -2.5847973 2.6195358 -0.0103519 67.2558046 28.2349895
1.8585290 -0.3953405 0.6898503 0.004729 0.002056 0.000170 -3.1458830 6.7084664 -1.0166887 47.5696514 -50.8142810 9.4163493 22.1294490
1.8743503 -0.3707269 0.7608193 0.003910 0.001924 0.000291 -2.6091061 4.9751134 -1.6451984 49.9762509 -48.0537342 19.5314539 21.4036469
1.8745386 -0.3401022 0.8315110 0.002920 0.001817 0.000701 -2.0049747 3.4899470 -1.8997738 50.3848146 -44.3239958 29.5417319 21.2128465
1.8591758 -0.3041406 0.8990867 0.001209 0.001285 0.000972 -1.4330039 2.3150506 -1.8638729 48.9847978 -39.5375962 39.0401761 21.0375487
1.8288113 -0.2642299 0.9608492 -0.000296 0.000851 0.001122 -1.0851842 1.6508884 -1.8696984 45.6797305 -34.1345859 47.3396955 21.3925175
1.7847406 -0.2221193 1.0146826 -0.001950 0.000269 0.001147 -0.8467177 1.2286512 -1.9159575 41.1191579 -28.3797889 54.2024231 21.7464283
1.7288260 -0.1795696 1.0593225 -0.003077 -0.000046 0.001043 -0.7325778 1.0251714 -2.1989117 35.5946065 -22.6523315 59.3900812 22.5500625
1.6631608 -0.1380914 1.0943788 -0.003962 -0.000287 0.000851 -0.5906883 0.8040185 -2.4186408 29.8104036 -17.1776373 63.0890461 23.2342738
1.5897516 -0.0988098 1.1201629 -0.004240 -0.000281 0.000584 -0.4546218 0.6046231 -2.6773782 24.0167902 -12.1529767 65.4618024 24.2324334
1.5102997 -0.0624589 1.1374490 -0.004380 -0.000272 0.000319 -0.2892815 0.3741949 -2.7106641 18.6546910 -7.5789610 66.8638919 24.9914255
1.4260649 -0.0294522 1.1472390 -0.004069 -0.000081 0.000072 -0.1452117 0.1751743 -2.7431023 13.7074969 -3.5773283 67.5073669 26.0095435
1.3377237 0.0000000 1.1505961 -0.003870 -0.000008 -0.000126 -0.0177290 0.0000008 -2.5266133 9.4161971 0.0070693 67.7267033 26.6780848
1.2450417 0.0257036 1.1485092 -0.003377 0.000141 -0.000268 0.0792081 -0.1364148 -2.4641219 5.5805349 3.0754291 67.6009471 27.6282281
1.9387100 -0.3502733 0.6956495 0.004087 0.002400 0.000297 -1.3150071 2.0053704 -0.3757251 58.9411943 -46.7864404 10.7816390 19.9875035
1.9508737 -0.3192355 0.7720717 0.003135 0.002322 0.000909 -0.0851560 0.1144732 -0.0478309 61.2008201 -43.0371664 22.0595432 19.4333024
1.9448031 -0.2825754 0.8469759 0.001709 0.001920 0.001313 0.7841186 -0.9432112 0.6671623 60.8247787 -38.0937348 33.1552236 19.1854438
1.9210702 -0.2415465 0.9169516 0.000017 0.001440 0.001726 0.9997335 -1.0858617 1.1769574 57.8499668 -32.3882632 43.0950151 19.3843956
1.8810827 -0.1979903 0.9791320 -0.001716 0.000796 0.001862 0.6956780 -0.6840328 1.0935055 52.8213678 -26.2037005 51.4615380 19.9047954
1.8270174 -0.1538865 1.0316185 -0.003138 0.000316 0.001805 0.1786692 -0.1579160 0.3717582 46.3107013 -20.0365998 57.8218164 20.7388481
1.7614195 -0.1109720 1.0736134 -0.004130 -0.000061 0.001541 -0.2210994 0.1712987 -0.6151191 39.2006370 -14.1641521 62.3497577 21.7166607
1.6867581 -0.0705370 1.1052599 -0.004584 -0.000143 0.001173 -0.4013046 0.2546381 -1.5359835 32.0282573 -8.8510690 65.2012786 22.8181907
1.6051024 -0.0333998 1.1273319 -0.004661 -0.000152 0.000767 -0.4007206 0.1676070 -2.2287783 25.2541330 -4.0991211 66.7903958 23.9159949
1.5179405 0.0000000 1.1409299 -0.004455 0.000007 0.000389 -0.2860756 0.0000008 -2.5728587 19.1341631 -0.0050088 67.4545730 24.9835550
1.4260649 0.0294522 1.1472390 -0.004056 0.000078 0.000073 -0.1452245 -0.1751881 -2.7433448 13.7010386 3.5762124 67.5069813 26.0038913
1.3294298 0.0547861 1.1473876 -0.003633 0.000243 -0.000172 -0.0091673 -0.3316958 -2.7965867 9.0064825 6.5703557 67.1414844 26.9457358
2.0115277 -0.2927626 0.7010736 0.003200 0.002592 0.000622 3.8377271 -4.1014691 0.9932890 71.2059992 -40.6155744 12.1100667 17.7286934
2.0174303 -0.2553267 0.7821190 0.002030 0.002291 0.001296 5.8052541 -5.3233589 2.9836160 72.7390217 -35.5739955 24.6166299 17.1219219
2.0028127 -0.2132430 0.8600819 0.000492 0.001901 0.002018 6.0693403 -4.7879414 4.7709741 70.7312614 -29.6168691 36.3577598 17.2813290
1.9689330 -0.1683897 0.9311082 -0.001304 0.001157 0.002389 4.8927144 -3.2856723 5.3730999 65.6910745 -23.0833809 46.5557698 17.7011195
1.9181839 -0.1229347 0.9923807 -0.002834 0.000671 0.002488 2.9633252 -1.6390780 4.3882223 58.3678281 -16.5917488 54.5498288 18.7504213
1.8536092 -0.0788403 1.0424395 -0.004087 0.000158 0.002289 1.2791569 -0.5363407 2.5340755 49.9075959 -10.3835679 60.2721002 19.8331683
1.7782773 -0.0375629 1.0810786 -0.004647 0.000068 0.001829 0.1721395 -0.0427490 0.4614734 41.1502464 -4.8690639 63.9385389 21.2766396
1.6948042 0.0000000 1.1089866 -0.004926 -0.000005 0.001320 -0.2984244 0.0000003 -1.1173126 32.8490154 0.0040266 65.9591436 22.4871151
1.6051025 0.0333998 1.1273319 -0.004679 0.000145 0.000769 -0.4006974 -0.1675959 -2.2286493 25.2623573 4.1005207 66.7894166 23.9182057
1.5102997 0.0624589 1.1374490 -0.004374 0.000263 0.000319 -0.2892772 -0.3741877 -2.7106238 18.6526330 7.5874603 66.8629999 24.9938586
1.4107283 0.0870809 1.1406320 -0.003848 0.000392 -0.000045 -0.1355538 -0.5761739 -3.0116451 12.9018954 10.4625075 66.4337553 26.2433054
2.0728938 -0.2220955 0.7058301 0.002142 0.002411 0.000852 13.1842576 -9.3197959 3.1700386 83.0323361 -31.6804453 13.3548901 15.4749277
2.0699400 -0.1790677 0.7903177 0.000861 0.001941 0.001840 14.5919185 -8.3477994 7.0431226 82.9056003 -25.5200543 26.6718387 15.2577313
2.0446996 -0.1331415 0.8698114 -0.000666 0.001341 0.002523 12.6537123 -5.6647873 9.4419302 78.6552118 -18.8152938 38.8336233 15.6886774
1.9994213 -0.0866369 0.9403210 -0.002286 0.000748 0.002940 8.6735295 -2.7861745 9.1412631 71.0925435 -12.0678323 48.8117591 16.7249447
1.9375149 -0.0417195 0.9993878 -0.003549 0.000171 0.002840 4.6166542 -0.8246663 6.6383621 61.4793693 -5.6445390 56.2418545 18.1010469
1.8626988 0.0000000 1.0461709 -0.004339 0.000006 0.002430 1.7372706 -0.0000010 3.3864063 51.1960436 -0.0040873 61.1472227 19.6782154
1.7782773 0.0375629 1.0810786 -0.004631 -0.000072 0.001824 0.1721123 0.0427420 0.4614006 41.1436254 4.8691732 63.9404413 21.2745791
1.6867582 0.0705371 1.1052599 -0.004588 0.000157 0.001171 -0.4013141 -0.2546433 -1.5360200 32.0293844 8.8414580 65.2024811 22.8173704
1.5897516 0.0988099 1.1201630 -0.004221 0.000278 0.000583 -0.4546388 -0.6046440 -2.6774782 24.0087501 12.1522928 65.4627419 24.2294096
1.4880318 0.1223902 1.1272595 -0.003816 0.000466 0.000106 -0.2972208 -0.8752107 -3.1691941 17.1821763 14.8023124 65.1168926 25.5324077
2.1179249 -0.1392349 0.7094477 0.001121 0.001731 0.001101 24.8606693 -10.0219186 5.6926098 92.5054218 -20.1423434 14.2546586 13.5772031
2.1039178 -0.0925114 0.7957733 -0.000013 0.001120 0.002117 23.4446726 -6.4471922 10.9006040 90.0178706 -13.3289285 28.0613100 13.7224488
2.0667902 -0.0453225 0.8750455 -0.001371 0.000503 0.002858 17.4386939 -2.5316075 12.6803180 83.0655123 -6.4629997 40.1255997 14.8032117
2.0099184 0.0000000 0.9435321 -0.002621 -0.000006 0.003079 10.3428474 -0.0000037 10.7531520 73.0289892 0.0037229 49.6412976 16.2062772
1.9375149 0.0417196 0.9993878 -0.003564 -0.000176 0.002850 4.6166736 0.8246656 6.6383901 61.4851153 5.6453559 56.2380418 18.1013818
1.8536092 0.0788403 1.0424395 -0.004084 -0.000166 0.002288 1.2791905 0.5363533 2.5341422 49.9061653 10.3902425 60.2719718 19.8349412
1.7614195 0.1109720 1.0736135 -0.004145 0.000052 0.001548 -0.2210885 -0.1712899 -0.6150888 39.2069773 14.1668469 62.3467693 21.7179933
1.6631608 0.1380914 1.0943788 -0.003958 0.000279 0.000851 -0.5906617 -0.8039807 -2.4185314 29.8088828 17.1847571 63.0878223 23.2370356
1.5601090 0.1603239 1.1063436 -0.003600 0.000520 0.000255 -0.5074721 -1.2711130 -3.3689226 21.7931203 19.5032495 63.0023601 24.8254189
2.1419271 -0.0475041 0.7114228 0.000501 0.000622 0.001212 33.3922006 -4.3749300 7.4623550 97.7091153 -6.8874332 14.7225269 12.4774446
2.1157174 0.0000000 0.7976971 -0.000375 0.000007 0.002282 27.1456415 -0.0000069 12.4654868 92.5130695 -0.0036859 28.4978176 13.2828538
2.0667902 0.0453226 0.8750455 -0.001361 -0.000506 0.002845 17.4386785 2.5315950 12.6803069 83.0616743 6.4631951 40.1304648 14.8025332
1.9994213 0.0866370 0.9403211 -0.002290 -0.000732 0.002940 8.6735021 2.7861594 9.1412344 71.0941234 12.0591181 48.8123901 16.7241500
1.9181839 0.1229347 0.9923807 -0.002818 -0.000675 0.002479 2.9633043 1.6390636 4.3881914 58.3618298 16.5922186 54.5533061 18.7495723
1.8270174 0.1538865 1.0316186 -0.003148 -0.000302 0.001804 0.1786360 0.1578865 0.3716892 46.3143442 20.0278774 57.8231982 20.7362099
1.7288260 0.1795697 1.0593226 -0.003057 0.000046 0.001036 -0.7325874 -1.0251834 -2.1989405 35.5868844 22.6509319 59.3930824 22.5484144
1.6254678 0.2002269 1.0771449 -0.002934 0.000388 0.000390 -0.7614469 -1.7575295 -3.5072522 26.4752326 24.5816220 59.8285290 24.1770950
2.1419271 0.0475042 0.7114228 0.000498 -0.000626 0.001228 33.3922108 4.3749158 7.4623572 97.7103267 6.8879272 14.7168999 12.4772126
2.1039178 0.0925115 0.7957733 -0.000012 -0.001130 0.002116 23.4447472 6.4472006 10.9006389 90.0170120 13.3351475 28.0612181 13.7239362
2.0446997 0.1331416 0.8698115 -0.000673 -0.001349 0.002537 12.6537168 5.6647814 9.4419338 78.6581410 18.8171641 38.8282487 15.6888118
1.9689331 0.1683897 0.9311082 -0.001300 -0.001167 0.002387 4.8928117 3.2857338 5.3732070 65.6892086 23.0900072 46.5553409 17.7036166
1.8810827 0.1979904 0.9791321 -0.001726 -0.000802 0.001874 0.6956664 0.6840207 1.0934874 52.8257972 26.2050578 51.4570564 19.9049650
1.7847407 0.2221194 1.0146827 -0.001942 -0.000279 0.001146 -0.8466457 -1.2285456 -1.9157948 41.1158825 28.3871890 54.2011822 21.7514510
1.6824228 0.2411234 1.0392688 -0.001962 0.000153 0.000475 -1.0776591 -2.3966909 -3.6441400 31.0134047 29.8585099 55.4606272 23.6200244
2.1179250 0.1392350 0.7094477 0.001127 -0.001737 0.001086 24.8606575 10.0219017 5.6926074 92.5034596 20.1433022 14.2602374 13.5769023
2.0699401 0.1790678 0.7903178 0.000854 -0.001925 0.001840 14.5918563 8.3477555 7.0430929 82.9088788 25.5118593 26.6725129 15.2555789
2.0028128 0.2132431 0.8600820 0.000503 -0.001902 0.002006 6.0693226 4.7879232 4.7709604 70.7273819 29.6162914 36.3629593 17.2806087
1.9210702 0.2415466 0.9169516 0.000007 -0.001428 0.001726 0.9996689 1.0857906 1.1768814 57.8543522 32.3808964 43.0962860 19.3817160
1.8288113 0.2642300 0.9608493 -0.000280 -0.000852 0.001112 -1.0851960 -1.6509048 -1.8697186 45.6740942 34.1338556 47.3439303 21.3907923
1.7292295 0.2817178 0.9928559 -0.000630 -0.000223 0.000487 -1.4517057 -3.2084716 -3.7138914 35.0060761 35.1656418 49.7486685 23.2171483
2.0728939 0.2220956 0.7058301 0.002142 -0.002415 0.000867 13.1842466 9.3197809 3.1700361 83.0328556 31.6809827 13.3490682 15.4745924
2.0174304 0.2553268 0.7821191 0.002036 -0.002304 0.001296 5.8054162 5.3235038 2.9836995 72.7356609 35.5814792 24.6157901 17.1264398
1.9448032 0.2825755 0.8469759 0.001704 -0.001923 0.001327 0.7840904 0.9431765 0.6671383 60.8271605 38.0944364 33.1494044 19.1842747
1.8591759 0.3041408 0.8990868 0.001217 -0.001295 0.000970 -1.4328755 -2.3148415 -1.8637060 48.9809018 39.5441860 39.0395167 21.0436903
1.7643006 0.3204778 0.9387313 0.000867 -0.000664 0.000430 -1.8828511 -4.2388568 -3.6852579 38.1522865 40.2387481 42.7871223 22.9678727
2.0115278 0.2927627 0.7010736 0.003205 -0.002594 0.000608 3.8376993 4.1014369 0.9932819 71.2043729 40.6152094 12.1160074 17.7271622
1.9508738 0.3192357 0.7720717 0.003122 -0.002307 0.000907 -0.0852540 -0.1146048 -0.0478860 61.2071655 43.0293824 22.0612014 19.4296446
1.8745387 0.3401024 0.8315111 0.002933 -0.001821 0.000691 -2.0050049 -3.4899977 -1.8998026 50.3802057 44.3243712 29.5466340 21.2120995
1.7864729 0.3558126 0.8784516 0.002415 -0.001085 0.000263 -2.3463596 -5.4984634 -3.4855505 40.0562178 44.7857398 34.7225954 22.9631630
1.9387101 0.3502735 0.6956495 0.004091 -0.002404 0.000310 -1.3150444 -2.0054263 -0.3757357 58.9401519 46.7872658 10.7753387 19.9868751
1.8743504 0.3707271 0.7608194 0.003919 -0.001936 0.000292 -2.6089222 -4.9747601 -1.6450825 49.9714344 48.0606716 19.5302581 21.4107356
1.7952398 0.3863141 0.8141814 0.003632 -0.001398 0.000119 -2.7672223 -6.8876425 -3.0101022 40.6436336 48.5446430 25.9658189 23.1135020
1.8585291 0.3953407 0.6898503 0.004735 -0.002058 0.000160 -3.1459299 -6.7085630 -1.0167039 47.5677788 50.8141283 9.4223305 22.1274503
1.7908404 0.4109941 0.7483960 0.004503 -0.001553 -0.000049 -3.0368752 -8.1916690 -2.2072045 39.8089727 51.3702366 16.9151870 23.4961274
1.7738964 0.4295160 0.6835261 0.004767 -0.001457 -0.000359 -3.2002984 -9.5706709 -1.1938941 37.5836394 52.5402539 8.1883442 23.9429586
1.7433963 0.4427492 0.6212299 0.004525 -0.001272 -0.000001 -3.1220992 -10.7733758 0.0000015 34.6355914 54.4083640 -0.0002637 24.6663673
1.8262797 0.4143075 0.6212300 0.004763 -0.001805 0.000001 -3.1668753 -7.7772030 0.0000010 43.5649362 52.3937386 -0.0003641 22.7818429
1.9081130 0.3753897 0.6212300 0.004407 -0.002219 -0.000001 -2.4603664 -4.3569659 0.0000004 54.3189524 49.3367330 0.0000264 20.9269603
1.9850273 0.3244528 0.6212300 0.003812 -0.002579 0.000000 1.1078620 1.3978532 -0.0000001 66.3594081 44.3590054 -0.0001038 18.5869884
2.0530336 0.2603335 0.6212300 0.002844 -0.002557 -0.000000 8.9065332 7.7135211 -0.0000005 78.9084570 36.7925788 -0.0000212 16.3451006
2.1073130 0.1830640 0.6212300 0.001831 -0.002151 -0.000000 20.8076060 11.2824583 -0.0000005 90.0892354 26.4252945 -0.0000631 14.0832945
2.1427180 0.0947464 0.6212300 0.001017 -0.001242 -0.000001 32.5222613 8.4924056 -0.0000002 97.7476930 13.7615291 0.0000855 12.5869810
2.1550670 0.0000000 0.6212300 0.000697 -0.000006 0.000000 37.6508058 -0.0000084 -0.0000001 100.4670733 0.0033800 -0.0001352 11.8924579
2.1427179 -0.0947463 0.6212300 0.001021 0.001258 -0.000001 32.5222897 -8.4924281 -0.0000003 97.7460921 -13.7694788 0.0000962 12.5876299
2.1073129 -0.1830639 0.6212300 0.001829 0.002140 -0.000000 20.8074580 -11.2823884 -0.0000005 90.0908731 -26.4191472 -0.0000474 14.0810780
2.0530335 -0.2603333 0.6212300 0.002853 0.002570 -0.000000 8.9066238 -7.7136048 -0.0000005 78.9042135 -36.7995983 -0.0000058 16.3473227
1.9850272 -0.3244526 0.6212300 0.003806 0.002568 -0.000000 1.1076582 -1.3975968 -0.0000001 66.3633486 -44.3521753 -0.0000549 18.5812419
1.9081129 -0.3753895 0.6212300 0.004426 0.002234 -0.000001 -2.4602455 4.3567541 0.0000005 54.3098419 -49.3446540 0.0001395 20.9320598
1.8262796 -0.4143073 0.6212300 0.004744 0.001789 0.000000 -3.1670903 7.7777348 0.0000010 43.5742263 -52.3853166 -0.0003372 22.7709670
1.7433962 -0.4427490 0.6212299 0.004551 0.001285 -0.000001 -3.1219440 10.7728467 0.0000015 34.6223997 -54.4163727 0.0001800 24.6729470
1.6855621 -0.4550010 0.5674408 0.004965 0.001137 0.000134 -3.7164457 15.9131698 1.5271995 28.3757981 -50.8845666 -6.0803074 25.6133619
1.7019191 -0.4419014 0.5088616 0.004782 0.001171 0.000184 -2.5628151 9.9846332 2.1870942 31.0271900 -53.3926462 -14.3345609 25.0752749
1.7092276 -0.4225503 0.4478571 0.004345 0.001097 0.000254 -2.4407698 8.8245172 3.1481110 31.8078641 -51.3455500 -22.3727550 24.8892965
1.7056492 -0.3972806 0.3870873 0.003134 0.000792 0.000209 -2.1871950 7.4980047 3.8561957 31.8681869 -48.4972423 -30.4461834 24.5220776
1.6902980 -0.3667583 0.3288403 0.002010 0.000496 0.000153 -1.8825704 6.2687839 4.3679260 30.7580208 -44.7788470 -38.0679846 24.5638921
1.6630614 -0.3320405 0.2751995 0.000557 0.000087 0.000117 -1.4887462 4.9508779 4.5123218 28.7834870 -40.4769630 -45.0292215 24.4941845
1.6244956 -0.2944422 0.2278254 -0.000682 -0.000210 0.000072 -1.1118670 3.8195076 4.4638206 25.9343279 -35.7930292 -50.9905554 24.8211630
1.5756635 -0.2553630 0.1878214 -0.001884 -0.000480 0.000073 -0.7683876 2.8517980 4.2334527 22.5670617 -30.8830605 -55.8766259 25.0329624
1.5179336 -0.2161140 0.1556945 -0.002628 -0.000575 0.000099 -0.4898009 2.1024963 3.9613257 18.8203350 -26.0518552 -59.6596066 25.6134782
1.4527876 -0.1777982 0.1314178 -0.003206 -0.000623 0.000162 -0.2636947 1.4868703 3.5838034 15.0775721 -21.3578023 -62.5140739 25.9855179
1.3816806 -0.1412553 0.1145572 -0.003355 -0.000535 0.000221 -0.1011277 1.0661635 3.3488992 11.3934799 -16.9545528 -64.4517525 26.6879405
1.3059733 -0.1070685 0.1044047 -0.003394 -0.000428 0.000282 0.0216397 0.7129112 3.0189946 8.0189199 -12.8584637 -65.8159626 27.1145309
1.2269625 -0.0756118 0.1000976 -0.003190 -0.000293 0.000321 0.1170940 0.4956291 3.0078870 4.9404160 -9.0958217 -66.4785745 27.8231404
1.1459872 -0.0471094 0.1006785 -0.003053 -0.000170 0.000351 0.1499968 0.2340385 2.2931618 2.3009631 -5.7214079 -67.4330745 28.1879868
1.0651736 -0.0218470 0.1050971 -0.002810 0.000010 0.000338 0.5539448 0.2845556 6.3433117 0.0806757 -2.5135341 -65.7560193 28.8601080
1.7738964 0.4295160 0.5589338 0.004769 -0.001457 0.000358 -3.2003085 -9.5707006 1.1939004 37.5828792 52.5403033 -8.1880906 23.9425004
1.7908404 0.4109941 0.4940639 0.004502 -0.001553 0.000048 -3.0368693 -8.1916524 2.2072022 39.8090840 51.3702877 -16.9151612 23.4965001
1.7952398 0.3863141 0.4282785 0.003633 -0.001398 -0.000119 -2.7672311 -6.8876636 3.0101133 40.6433519 48.5444521 -25.9659993 23.1128886
1.7864729 0.3558126 0.3640083 0.002415 -0.001085 -0.000265 -2.3463532 -5.4984474 3.4855421 40.0565054 44.7859540 -34.7222106 22.9635753
1.7643006 0.3204777 0.3037286 0.000868 -0.000663 -0.000431 -1.8828577 -4.2388709 3.6852716 38.1520423 40.2383379 -42.7874799 22.9673188
1.7292295 0.2817177 0.2496041 -0.000630 -0.000223 -0.000489 -1.4517016 -3.2084619 3.7138816 35.0063808 35.1660249 -49.7482773 23.2176387
1.6824228 0.2411233 0.2031912 -0.001961 0.000154 -0.000476 -1.0776625 -2.3966979 3.6441519 31.0133257 29.8579385 -55.4609107 23.6192440
1.6254678 0.2002269 0.1653151 -0.002935 0.000387 -0.000391 -0.7614455 -1.7575256 3.5072457 26.4755651 24.5821405 -59.8282266 24.1778871
1.5601089 0.1603238 0.1361164 -0.003599 0.000521 -0.000256 -0.5074735 -1.2711160 3.3689318 21.7929079 19.5024131 -63.0026544 24.8245950
1.4880318 0.1223901 0.1152005 -0.003817 0.000464 -0.000108 -0.2972202 -0.8752088 3.1691883 17.1828373 14.8033387 -65.1165641 25.5330290
1.4107283 0.0870808 0.1018280 -0.003847 0.000393 0.000044 -0.1355539 -0.5761745 3.0116490 12.9014977 10.4608402 -66.4340862 26.2428211
1.3294298 0.0547861 0.0950724 -0.003633 0.000240 0.000170 -0.0091673 -0.3316937 2.7965700 9.0071374 6.5721598 -67.1413042 26.9464045
1.2450417 0.0257036 0.0939508 -0.003377 0.000143 0.000267 0.0792090 -0.1364163 2.4641504 5.5806020 3.0732545 -67.6010236 27.6274371
1.1578306 0.0000000 0.0975121 -0.003034 0.000013 0.000317 0.1600452 0.0000010 2.5826475 2.6196393 -0.0092243 -67.2580201 28.2363134
1.8585291 0.3953407 0.5526096 0.004734 -0.002058 -0.000162 -3.1459201 -6.7085417 1.0167023 47.5683061 50.8141405 -9.4218751 22.1277564
1.8743504 0.3707271 0.4816406 0.003920 -0.001936 -0.000292 -2.6089258 -4.9747664 1.6450858 49.9712711 48.0605691 -19.5306928 21.4105415
1.8745387 0.3401024 0.4109489 0.002932 -0.001821 -0.000693 -2.0049956 -3.4899809 1.8997944 50.3803969 44.3245806 -29.5463733 21.2125605
1.8591759 0.3041407 0.3433732 0.001218 -0.001295 -0.000970 -1.4328790 -2.3148469 1.8637110 48.9806774 39.5439351 -39.0399350 21.0433543
1.8288113 0.2642299 0.2816107 -0.000281 -0.000852 -0.001113 -1.0851888 -1.6508936 1.8697065 45.6743137 34.1342756 -47.3435806 21.3912124
1.7847407 0.2221193 0.2277772 -0.001941 -0.000278 -0.001146 -0.8466483 -1.2285490 1.9158008 41.1154888 28.3867225 -54.2016223 21.7511721
1.7288260 0.1795696 0.1831374 -0.003057 0.000045 -0.001038 -0.7325828 -1.0251768 2.1989269 35.5870461 22.6515782 -59.3927982 22.5488726
1.6631608 0.1380914 0.1480812 -0.003957 0.000280 -0.000851 -0.5906641 -0.8039837 2.4185414 29.8085621 17.1841937 -63.0880489 23.2364537
1.5897516 0.0988098 0.1222971 -0.004221 0.000277 -0.000584 -0.4546363 -0.6046404 2.6774633 24.0087919 12.1529846 -65.4626280 24.2301626
1.5102997 0.0624589 0.1050110 -0.004372 0.000264 -0.000320 -0.2892793 -0.3741903 2.7106434 18.6521859 7.5868490 -66.8630638 24.9931273
1.4260649 0.0294522 0.0952210 -0.004056 0.000076 -0.000074 -0.1452233 -0.1751865 2.7433220 13.7013634 3.5773299 -67.5069462 26.0043328
1.3377236 0.0000000 0.0918639 -0.003868 -0.000007 0.000125 -0.0177293 0.0000008 2.5266550 9.4152911 0.0058483 -67.7265956 26.6776617
1.2450417 -0.0257036 0.0939508 -0.003369 -0.000154 0.000268 0.0791744 0.1363585 2.4630749 5.5744410 -3.0700415 -67.6017541 27.6238394
1.9387101 0.3502735 0.5468104 0.004092 -0.002404 -0.000310 -1.3150528 -2.0054391 0.3757385 58.9397967 46.7872903 -10.7754396 19.9866106
1.9508738 0.3192357 0.4703882 0.003122 -0.002307 -0.000909 -0.0852480 -0.1145968 0.0478827 61.2073450 43.0293917 -22.0610100 19.4297755
1.9448032 0.2825755 0.3954840 0.001705 -0.001923 -0.001327 0.7840811 0.9431653 -0.6671306 60.8270083 38.0943262 -33.1494391 19.1838919
1.9210702 0.2415465 0.3255083 0.000006 -0.001428 -0.001728 0.9996747 1.0857968 -1.1768884 57.8545150 32.3809930 -43.0961567 19.3820624
1.8810827 0.1979904 0.2633279 -0.001725 -0.000802 -0.001874 0.6956578 0.6840121 -1.0934740 52.8256592 26.2048018 -51.4571366 19.9045021
1.8270174 0.1538865 0.2108414 -0.003149 -0.000303 -0.001806 0.1786420 0.1578917 -0.3717016 46.3147561 20.0281456 -57.8229735 20.7365115
1.7614195 0.1109720 0.1688465 -0.004143 0.000052 -0.001549 -0.2210952 -0.1712951 0.6151075 39.2066609 14.1663205 -62.3469177 21.7176879
1.6867581 0.0705370 0.1372001 -0.004589 0.000156 -0.001173 -0.4013096 -0.2546403 1.5360028 32.0299189 8.8419203 -65.2023542 22.8177300
1.6051024 0.0333998 0.1151281 -0.004678 0.000146 -0.000770 -0.4007010 -0.1675974 2.2286695 25.2621614 4.0999016 -66.7894045 23.9176554
1.5179404 0.0000000 0.1015301 -0.004456 0.000006 -0.000390 -0.2860726 0.0000008 2.5728314 19.1345761 -0.0047026 -67.4546374 24.9843413
1.4260649 -0.0294522 0.0952210 -0.004068 -0.000081 -0.000073 -0.1452135 0.1751764 2.7431358 13.7073283 -3.5779322 -67.5072309 26.0089515
1.3294298 -0.0547861 0.0950724 -0.003629 -0.000223 0.000167 -0.0091678 0.3317170 2.7967502 9.0060135 -6.5858672 -67.1391844 26.9465883
2.0115278 0.2927627 0.5413864 0.003205 -0.002594 -0.000609 3.8377089 4.1014470 -0.9932850 71.2045998 40.6152159 -12.1158288 17.7273729
2.0174304 0.2553268 0.4603409 0.002037 -0.002304 -0.001296 5.8054143 5.3235016 -2.9836992 72.7354655 35.5814425 -24.6161567 17.1263903
2.0028128 0.2132431 0.3823780 0.000502 -0.001902 -0.002007 6.0693333 4.7879311 -4.7709694 70.7275736 29.6164162 -36.3627936 17.2808267
1.9689331 0.1683897 0.3113518 -0.001300 -0.001167 -0.002388 4.8928055 3.2857291 -5.3732005 65.6890003 23.0898911 -46.5555285 17.7033980
1.9181839 0.1229347 0.2500793 -0.002818 -0.000676 -0.002480 2.9633120 1.6390676 -4.3882031 58.3619082 16.5924274 -54.5532878 18.7499660
1.8536092 0.0788403 0.2000205 -0.004082 -0.000166 -0.002289 1.2791847 0.5363507 -2.5341307 49.9058416 10.3900840 -60.2720873 19.8346034
1.7782773 0.0375629 0.1613814 -0.004631 -0.000073 -0.001825 0.1721175 0.0427433 -0.4614145 41.1439052 4.8695676 -63.9403857 21.2748342
1.6948042 0.0000000 0.1334734 -0.004924 -0.000004 -0.001321 -0.2984294 0.0000003 1.1173311 32.8483812 0.0036770 -65.9592114 22.4869271
1.6051024 -0.0333998 0.1151281 -0.004662 -0.000153 -0.000768 -0.4007172 0.1676055 2.2287597 25.2545173 -4.0984923 -66.7904696 23.9162037
1.5102997 -0.0624589 0.1050110 -0.004378 -0.000271 -0.000320 -0.2892841 0.3741981 2.7106884 18.6541706 -7.5792189 -66.8637770 24.9908368
1.4107283 -0.0870808 0.1018281 -0.003836 -0.000407 0.000047 -0.1355594 0.5762001 3.0117727 12.8953278 -10.4552819 -66.4352756 26.2394068
2.0728939 0.2220956 0.5366299 0.002142 -0.002415 -0.000868 13.1842386 9.3197748 -3.1700351 83.0327313 31.6809867 -13.3489916 15.4743910
2.0699401 0.1790678 0.4521422 0.000854 -0.001925 -0.001841 14.5918609 8.3477574 -7.0430958 82.9090218 25.5118433 -26.6723330 15.2556411
2.0446997 0.1331416 0.3726486 -0.000672 -0.001349 -0.002538 12.6537070 5.6647763 -9.4419269 78.6579514 18.8170925 -38.8283578 15.6886611
1.9994213 0.0866370 0.3021390 -0.002290 -0.000732 -0.002941 8.6735074 2.7861606 -9.1412402 71.0943949 12.0591664 -48.8122065 16.7242667
1.9375149 0.0417196 0.2430722 -0.003563 -0.000176 -0.002850 4.6166641 0.8246638 -6.6383764 61.4850024 5.6452054 -56.2380169 18.1010960
1.8626988 0.0000000 0.1962891 -0.004339 0.000007 -0.002431 1.7372770 -0.0000010 -3.3864188 51.1962927 -0.0040784 -61.1471954 19.6785865
1.7782773 -0.0375628 0.1613814 -0.004646 0.000068 -0.001830 0.1721348 -0.0427478 -0.4614608 41.1500854 -4.8692575 -63.9384847 21.2763021
1.6867581 -0.0705370 0.1372001 -0.004585 -0.000143 -0.001174 -0.4012996 0.2546349 1.5359646 32.0288237 -8.8509902 -65.2012525 22.8184301