# volRat = 0.650000
# viscRat = 5.000000
# alpha = 0.500000
# shRate = 3.182000
# tnum = 3300
# time = 2.981656
VARIABLES = X, Y, Z, U, V, W, F_B0, F_B1, F_B2, F_0, F_1, F_2, T
ZONE N=2562 E=5120 F=FEPOINT ET=TRIANGLE
1.6229592 0.2111649 0.6212299 0.306044 -0.093069 -0.000000 2.5172847 8.4539435 0.0000015 24.9637122 40.5458542 0.0008400 20.9110291
-1.6496743 0.7310406 0.6212299 0.310915 0.046629 -0.000008 -1.7169951 11.3778649 0.0000027 -21.0345996 50.7749739 0.0038399 19.0101122
1.6496743 -0.7310407 0.6212299 -0.310915 -0.046629 0.000001 1.7169954 -11.3778680 0.0000027 21.0345775 -50.7749874 -0.0001056 19.0101372
-1.6229593 -0.2111650 0.6212299 -0.306044 0.093069 -0.000001 -2.5172922 -8.4539672 0.0000016 -24.9637213 -40.5458847 0.0006394 20.9110468
0.9788690 -0.0817428 1.1211737 0.064180 0.063256 -0.010011 -1.7177069 4.7654640 21.7966344 -1.3172343 10.5127858 63.5471272 22.8065434
0.9788690 -0.0817428 0.1212861 0.064195 0.063240 0.010029 -1.7190098 4.7691372 -21.8132894 -1.3272104 10.5264928 -63.5604678 22.8062420
-0.9788690 0.0817427 1.1211737 -0.064186 -0.063244 -0.010007 1.7179551 -4.7661513 21.7997851 1.3223105 -10.5235397 63.5472190 22.8029713
-0.9788690 0.0817427 0.1212860 -0.064188 -0.063252 0.010033 1.7187772 -4.7684809 -21.8103246 1.3221535 -10.5158192 -63.5605423 22.8098390
-0.1076137 0.3628462 0.8450302 0.176524 -0.048705 0.007232 -7.5442537 -32.9049231 -20.1412521 2.8981802 15.6712186 13.5527300 25.4627552
0.1076139 -0.3628454 0.8450298 -0.176255 0.049540 0.006804 6.8930549 30.0640846 -18.4032408 -3.5599704 -18.3982656 15.1351322 25.4345148
-0.1076141 0.3628448 0.3974304 0.176087 -0.050205 -0.006496 -6.4207843 -28.0038942 17.1428061 4.0141045 20.4041613 -16.2396142 25.3962922
0.1076139 -0.3628456 0.3974299 -0.176361 0.049351 -0.006934 7.0774662 30.8685661 18.8954225 -3.3469157 -17.6542463 -14.6437001 25.4247833
1.6462164 0.2029316 0.6671666 0.305067 -0.097747 -0.000410 -3.8805206 -12.2776005 -0.9876630 25.1348554 35.7025052 3.7744755 20.7456236
1.6635159 0.1907239 0.7177552 0.299365 -0.101814 -0.000584 -3.4418406 -10.2446202 -1.8897026 26.3705926 35.0640221 8.6266834 20.2915908
1.6720824 0.1749737 0.7712106 0.290122 -0.103387 -0.000579 -3.2598151 -9.2550720 -2.7704459 26.9188169 34.1521523 13.5762042 20.1437698
1.6701128 0.1560980 0.8254254 0.277038 -0.101714 -0.000664 -3.0138116 -8.3016172 -3.5501839 26.9377058 32.8088723 18.6627662 19.8351049
1.6567095 0.1346173 0.8785211 0.261044 -0.096534 -0.001116 -2.6808899 -7.3111920 -4.1716885 26.1675158 31.2216698 23.6980470 19.8727617
1.6316881 0.1112451 0.9286873 0.242407 -0.087584 -0.002138 -2.2635036 -6.2592225 -4.5664640 24.7746255 29.3199651 28.5197905 19.7983313
1.5954934 0.0868274 0.9743658 0.222339 -0.075267 -0.003682 -1.8210339 -5.2533016 -4.7602855 22.7054846 27.2550818 32.9399960 20.0433104
1.5490705 0.0622406 1.0143880 0.201441 -0.059987 -0.005655 -1.3727964 -4.2784447 -4.7171210 20.2184620 25.0273212 36.9117424 20.1761161
1.4936948 0.0382809 1.0480500 0.180825 -0.042745 -0.007721 -0.9828778 -3.4640008 -4.5789095 17.3414532 22.7617874 40.2516715 20.5969048
1.4307995 0.0155838 1.0751036 0.160797 -0.024312 -0.009671 -0.6416695 -2.7308889 -4.2846463 14.3856131 20.4412495 43.0792226 20.8295017
1.3618386 -0.0054171 1.0956823 0.141992 -0.005835 -0.011195 -0.3788732 -2.1740497 -4.0250980 11.3669543 18.1760167 45.2929279 21.3286792
1.2882140 -0.0244893 1.1102041 0.124289 0.011969 -0.012034 -0.1747247 -1.7281954 -3.7697594 8.5213703 15.8911751 46.9975195 21.5878707
1.2112980 -0.0415711 1.1192713 0.107840 0.028241 -0.012283 -0.0177908 -1.2640608 -3.2592532 5.8429022 13.8519295 48.6485573 22.0698109
1.1325338 -0.0567317 1.1236050 0.092332 0.042607 -0.011649 0.1253066 -1.3906473 -4.2764846 3.4983879 11.3308944 48.5844805 22.2813150
1.0541328 -0.0700647 1.1239887 0.077893 0.054334 -0.010571 0.4359512 -1.9791131 -7.4160762 1.4689427 8.8717307 47.4091541 22.7269826
1.7600950 -0.7035788 0.6924009 -0.294776 -0.088554 -0.002590 -1.7672497 5.9375673 -0.8570729 30.5501783 -43.7204665 7.6712740 17.3775588
1.7768825 -0.6817960 0.7655011 -0.280645 -0.098143 -0.004651 -1.6686362 4.8633771 -1.5220784 32.4474800 -41.7542776 15.5560930 16.9778163
1.7810143 -0.6505849 0.8383290 -0.260145 -0.103836 -0.006275 -1.3086734 3.3949055 -1.7403772 33.2930149 -38.6421356 23.5503538 16.6435891
1.7719256 -0.6105331 0.9079062 -0.233422 -0.104756 -0.006807 -0.9314292 2.1879105 -1.6571841 32.8026098 -34.5529859 30.9205953 16.5320198
1.7494934 -0.5630692 0.9713812 -0.201855 -0.100396 -0.006106 -0.6500521 1.3986801 -1.4983468 31.1671142 -29.6927433 37.3249926 16.5750134
1.7143608 -0.5101747 1.0264452 -0.166801 -0.090600 -0.004457 -0.4761138 0.9434859 -1.4132535 28.5157499 -24.4919884 42.5003712 16.8653055
1.6677946 -0.4540510 1.0716302 -0.130306 -0.076037 -0.002391 -0.4098088 0.7450932 -1.5844598 25.1681736 -19.1646219 46.3394733 17.3100478
1.6114133 -0.3968058 1.1063758 -0.093856 -0.057846 -0.000582 -0.3554786 0.5804102 -1.8402481 21.4842275 -14.1003478 48.9808074 17.9111140
1.5469074 -0.3402373 1.1309064 -0.059013 -0.037716 0.000416 -0.3043088 0.4180127 -2.2146758 17.7423310 -9.3315659 50.5796206 18.5989291
1.4758372 -0.2857473 1.1460213 -0.026720 -0.017162 0.000345 -0.2226165 0.2035436 -2.4836402 14.1452582 -5.0547543 51.3924251 19.3520315
1.3995239 -0.2343483 1.1528682 0.002183 0.002265 -0.000821 -0.1321188 -0.0270926 -2.7070302 10.8619830 -1.2054273 51.6387103 20.0917766
1.3190097 -0.1867244 1.1527698 0.027326 0.019574 -0.002854 -0.0395751 -0.2510136 -2.7841727 7.9413514 2.1497906 51.5068887 20.8227836
1.2350143 -0.1432988 1.1470872 0.048482 0.034063 -0.005431 0.0403533 -0.4395451 -2.7456820 5.3880518 5.0853315 51.2443218 21.5212266
1.1476453 -0.1043492 1.1371477 0.065472 0.045546 -0.008180 0.0956496 -0.5474890 -2.4832620 3.2403851 7.6313213 51.0277358 22.1310678
1.8447624 -0.6715203 0.6984934 -0.276313 -0.126941 -0.002842 -1.1018404 2.4179778 -0.4210829 39.6801077 -41.5554082 8.5915947 15.7809509
1.8602440 -0.6425410 0.7770437 -0.257302 -0.137827 -0.005464 -0.3062894 0.5828554 -0.2226991 41.7863538 -38.5830535 17.5465529 15.1628953
1.8598375 -0.6042778 0.8536542 -0.231223 -0.142555 -0.006851 0.3260229 -0.5472941 0.3492463 42.0437882 -34.5668790 26.0466044 15.0139941
1.8437688 -0.5578364 0.9250231 -0.199593 -0.140855 -0.006852 0.6572511 -0.9795906 0.9502127 40.6732498 -29.5669540 33.6453871 14.9267643
1.8128003 -0.5051810 0.9882426 -0.163578 -0.132134 -0.005583 0.5905591 -0.7781271 1.1129375 37.7302828 -24.1401267 39.9008388 15.3164256
1.7684236 -0.4486801 1.0412595 -0.125822 -0.117199 -0.003460 0.2962634 -0.3379998 0.7208993 33.7829986 -18.5026424 44.6041204 15.7455763
1.7126107 -0.3906694 1.0830856 -0.087727 -0.097195 -0.001434 -0.0375914 0.0351887 -0.1188843 29.2069103 -13.1192119 47.8724709 16.5742392
1.6474491 -0.3331468 1.1137212 -0.051316 -0.074110 -0.000068 -0.2508738 0.1670213 -1.0524778 24.5074192 -8.0870043 49.8557646 17.3180328
1.5748373 -0.2776389 1.1339010 -0.017462 -0.049830 0.000132 -0.3347819 0.0870535 -1.9332692 19.9231975 -3.5733152 50.8673734 18.3244825
1.4963003 -0.2252097 1.1448103 0.012766 -0.026241 -0.000859 -0.2932400 -0.1288510 -2.4835915 15.7625857 0.4463786 51.1770031 19.1208472
1.4128882 -0.1765422 1.1478395 0.039282 -0.004534 -0.002943 -0.2056021 -0.3916723 -2.8790093 11.9747215 3.9133379 51.0237670 20.1314627
1.3250588 -0.1320420 1.1444224 0.061385 0.014273 -0.005703 -0.0955202 -0.6259966 -2.9863984 8.7616719 6.9452743 50.5897153 20.8168653
1.2323604 -0.0919776 1.1359255 0.079344 0.029968 -0.008789 0.0039518 -0.8944913 -3.2737323 5.9035778 9.4563657 49.8432174 21.7307186
1.9247058 -0.6265281 0.7035715 -0.248624 -0.168809 -0.003162 2.0418735 -3.0312887 0.6488144 49.6812740 -37.5418004 9.5555393 13.9147985
1.9361042 -0.5901688 0.7864199 -0.223672 -0.179093 -0.005277 3.4864011 -4.4328297 2.1366114 51.3562704 -33.6535577 19.1142552 13.4721335
1.9289620 -0.5450930 0.8656707 -0.192090 -0.181299 -0.006111 4.0770096 -4.4578578 3.7230252 50.6615648 -28.6703648 28.0374642 13.3318953
1.9041321 -0.4931234 0.9376068 -0.155674 -0.174806 -0.005243 3.6361213 -3.3788595 4.5224130 47.8089715 -23.1257625 35.5571677 13.6183068
1.8633218 -0.4367197 0.9993812 -0.116781 -0.160303 -0.003329 2.5088453 -1.9100748 4.0967032 43.3702675 -17.2827484 41.4575603 14.2167197
1.8089103 -0.3784283 1.0493796 -0.077506 -0.139024 -0.001165 1.2608693 -0.7188881 2.6716041 37.9221060 -11.6576686 45.6071263 15.0946165
1.7434915 -0.3204531 1.0872254 -0.039814 -0.113263 0.000418 0.3019007 -0.0992586 0.8333000 32.1421703 -6.4087657 48.2451026 16.1054630
1.6694408 -0.2644569 1.1135087 -0.004961 -0.085318 0.000854 -0.2311729 -0.0014446 -0.8454230 26.4711971 -1.7213500 49.6397262 17.2121015
1.5886373 -0.2115611 1.1294193 0.026273 -0.057446 -0.000075 -0.4214088 -0.2173824 -2.1082459 21.2013174 2.4093540 50.1539589 18.3113145
1.5023301 -0.1624571 1.1364346 0.053387 -0.031279 -0.002225 -0.3937500 -0.5425048 -2.8476269 16.5246680 5.9672684 50.0748864 19.3616313
1.4110536 -0.1175514 1.1360972 0.076217 -0.008027 -0.005264 -0.2803211 -0.8660574 -3.2464424 12.4088476 9.0525341 49.6403001 20.3562456
1.3144935 -0.0771275 1.1299031 0.094464 0.011892 -0.008773 -0.1428813 -1.1198296 -3.3641271 8.8867850 11.6382387 49.0590032 21.2612821
1.9963068 -0.5673060 0.7077688 -0.209132 -0.211225 -0.002709 8.5778924 -8.5557059 2.3648296 59.4550181 -31.5163754 10.2513584 12.0121719
2.0008274 -0.5239667 0.7935626 -0.178119 -0.218849 -0.004141 10.2384828 -8.4668884 5.5169236 60.1062692 -26.7031008 20.2643219 11.5877927
1.9846734 -0.4732210 0.8738970 -0.141585 -0.215946 -0.003789 9.6201601 -6.4609195 7.8095037 57.8963239 -21.2134709 29.1647565 11.8632882
1.9495060 -0.4175309 0.9448699 -0.102097 -0.203032 -0.002107 7.2863952 -3.7502361 8.1317139 53.3563110 -15.3451517 36.4514865 12.4004486
1.8980216 -0.3596014 1.0039456 -0.062105 -0.181284 0.000107 4.3252889 -1.4687875 6.3878556 47.2318764 -9.6503775 41.8181191 13.4820489
1.8333692 -0.3018304 1.0501181 -0.023840 -0.153445 0.001903 1.9007061 -0.2383467 3.6666561 40.4572452 -4.3001357 45.3958344 14.5991432
1.7585289 -0.2460179 1.0836550 0.011474 -0.122146 0.002464 0.3241817 0.0513801 0.8190031 33.5930005 0.4552601 47.4428539 16.0078770
1.6759011 -0.1933455 1.1056653 0.042816 -0.090218 0.001598 -0.3882950 -0.2185951 -1.3049582 27.2227293 4.6261944 48.3592639 17.2005954
1.5871211 -0.1445109 1.1176782 0.070064 -0.059698 -0.000731 -0.5916795 -0.7003694 -2.7276290 21.4623395 8.1941685 48.5225845 18.5650667
1.4930186 -0.0999065 1.1213594 0.092750 -0.032032 -0.004079 -0.5070387 -1.1314175 -3.3841252 16.4904799 11.2394728 48.2200447 19.6055598
1.3936219 -0.0597977 1.1183461 0.110942 -0.008033 -0.008038 -0.3477723 -1.4930185 -3.7168077 12.1790390 13.7915910 47.6645940 20.7702070
2.0548656 -0.4938767 0.7107636 -0.156563 -0.249834 -0.001773 18.1407178 -11.4432478 4.4945992 67.6753765 -23.5452650 10.6532061 10.2451135
2.0499518 -0.4449434 0.7978704 -0.120442 -0.252074 -0.001841 18.3479094 -8.8613105 8.9956687 66.7298022 -18.2507523 20.6871810 10.2231880
2.0229989 -0.3906951 0.8775347 -0.080909 -0.242130 -0.000364 14.9087873 -5.0068769 11.1296954 62.6850484 -12.5901440 29.3548375 10.7926804
1.9766657 -0.3339091 0.9460351 -0.040904 -0.221321 0.001973 9.7382341 -1.7004381 10.0889219 56.4124608 -6.9818776 36.1403408 11.8861079
1.9145208 -0.2771276 1.0014013 -0.002634 -0.192492 0.003923 4.9297391 0.0884316 6.8167531 48.8559131 -1.6632889 40.9609601 13.2562174
1.8401858 -0.2222714 1.0433007 0.032270 -0.158692 0.004724 1.6318910 0.4330552 2.9710450 40.9981103 3.0562939 43.9585416 14.7747343
1.7567049 -0.1705767 1.0725688 0.063162 -0.123365 0.003885 -0.0974431 -0.0588386 -0.2341107 33.4790735 7.1966327 45.5762103 16.2939227
1.6662573 -0.1227396 1.0906925 0.089623 -0.088862 0.001450 -0.7332388 -0.8028270 -2.3617368 26.6944487 10.6806277 46.1862538 17.7482699
1.5701134 -0.0791229 1.0994160 0.111657 -0.057219 -0.002202 -0.7873138 -1.4618235 -3.5092313 20.7471852 13.6581911 46.1677108 19.0672379
1.4687170 -0.0399440 1.1005123 0.129122 -0.029371 -0.006591 -0.6049726 -1.9081331 -3.9482313 15.6782690 16.1416521 45.7957771 20.2765121
2.0953690 -0.4083577 0.7121478 -0.092053 -0.279108 -0.000264 27.3683383 -9.0681480 6.2799158 72.8833950 -14.3657927 10.6496257 8.9435689
2.0792152 -0.3562969 0.7987095 -0.053113 -0.273697 0.001148 24.1227984 -4.6488617 11.0802940 70.0835435 -9.0742525 20.4005984 9.2950658
2.0407422 -0.3014969 0.8759980 -0.013667 -0.255554 0.003582 17.0030683 -0.7319287 12.0149105 64.3210656 -3.7210523 28.5807163 10.4299411
1.9835443 -0.2465559 0.9408125 0.023780 -0.227239 0.005893 9.5067755 1.2598917 9.4121984 56.6308786 1.3763063 34.8091781 11.8120159
1.9117180 -0.1934682 0.9918700 0.057568 -0.192378 0.007039 3.8051185 1.3440253 5.0742461 48.1117736 5.9572262 39.0437523 13.5919874
1.8289655 -0.1435074 1.0294437 0.087055 -0.154656 0.006421 0.5852927 0.3785938 1.0369644 39.6992811 9.9435931 41.5958096 15.2040841
1.7381063 -0.0973636 1.0547806 0.112078 -0.117166 0.003982 -0.8087229 -0.8552959 -1.9087004 31.9604065 13.3045237 42.8988633 16.9312493
1.6409645 -0.0553636 1.0696024 0.132656 -0.082150 0.000134 -1.0948702 -1.8203123 -3.5011086 25.1556346 16.1453707 43.3624376 18.3274155
1.5384595 -0.0176705 1.0757677 0.148900 -0.050958 -0.004635 -0.9425086 -2.4628379 -4.2248373 19.3130854 18.4843419 43.3414358 19.7749938
2.1137957 -0.3152023 0.7116248 -0.019755 -0.294024 0.001418 31.2038908 -2.0742058 6.8090384 74.3819713 -4.9824555 10.3190741 8.4707593
2.0858961 -0.2631626 0.7957945 0.018563 -0.280184 0.004113 23.9065821 1.7507948 10.5566084 69.8911554 -0.0255647 19.5347327 9.3728833
2.0365346 -0.2108684 0.8693047 0.054643 -0.254532 0.006899 14.4563597 3.3981057 9.9196389 62.7752045 4.7863744 27.0768994 10.8388033
1.9698651 -0.1603094 0.9296532 0.086742 -0.220540 0.008655 6.5214339 2.8391366 6.3302903 54.2448690 9.1601365 32.6530339 12.6042555
1.8900583 -0.1127639 0.9762000 0.114352 -0.182228 0.008501 1.5483001 1.0788236 2.0437523 45.3199735 12.9545950 36.3765842 14.4333431
1.8005645 -0.0689104 1.0096648 0.137234 -0.142997 0.006387 -0.7758067 -0.8172547 -1.3740532 36.9083930 16.1153665 38.5763719 16.2238879
1.7038283 -0.0290476 1.0315529 0.155886 -0.105688 0.002559 -1.4463151 -2.2574675 -3.4493567 29.3486054 18.7600888 39.7237150 17.8524168
1.6013159 0.0067063 1.0437109 0.170309 -0.071944 -0.002352 -1.3370786 -3.0996137 -4.3749459 22.8666353 20.9467733 40.1845857 19.3166566
2.1084796 -0.2204328 0.7091733 0.053702 -0.292277 0.002910 27.0669468 5.0498014 5.7522789 72.2827261 3.9206439 9.7421444 8.9421118
2.0697804 -0.1714233 0.7893946 0.088068 -0.271156 0.006263 17.7892502 5.9868084 7.7295327 66.4443095 8.3436889 18.2490969 10.1441478
2.0112605 -0.1240027 0.8581632 0.118202 -0.240256 0.008803 8.7112389 4.5335106 5.9396175 58.5722983 12.4154198 25.0434822 11.9137621
1.9371331 -0.0793996 0.9136580 0.143460 -0.203314 0.009512 2.4670315 1.8687061 2.4026136 49.8062588 15.9326485 29.9714243 13.6950087
1.8512832 -0.0382700 0.9557300 0.164015 -0.164300 0.008072 -0.7690160 -0.8270692 -1.0284936 41.1288619 18.8960563 33.2366263 15.6348886
1.7567573 -0.0008975 0.9853939 0.180299 -0.126077 0.004614 -1.8094766 -2.7456466 -3.2811430 33.1773523 21.3451694 35.2500040 17.2583724
1.6556234 0.0326177 1.0043084 0.192701 -0.090942 -0.000174 -1.8008405 -3.8797399 -4.4486401 26.1809749 23.3640587 36.3552331 18.9201885
2.0806522 -0.1300191 0.7050818 0.121513 -0.275479 0.003763 17.4538079 7.7852243 3.6918157 67.1653087 11.9736390 9.0006256 10.2200033
2.0331000 -0.0861360 0.7802545 0.149681 -0.249641 0.007166 9.2114521 5.6707656 4.0225928 60.6082238 15.6790363 16.6668964 11.7235803
1.9675835 -0.0448116 0.8437262 0.172893 -0.216516 0.008941 2.7377565 2.2804453 1.8939785 52.5753929 18.9395220 22.6795286 13.4769493
1.8880039 -0.0066458 0.8942099 0.191144 -0.179573 0.008523 -0.9186113 -1.0305180 -0.9163692 44.1936448 21.6504546 27.0244088 15.2940119
1.7978312 0.0280815 0.9319020 0.205208 -0.142217 0.005854 -2.2588953 -3.4271948 -3.1251234 36.1663137 23.8960418 29.9737146 17.0405756
1.6997347 0.0592533 0.9580279 0.215404 -0.106901 0.001564 -2.2998165 -4.7696177 -4.3599780 28.9765430 25.7314778 31.8234376 18.6442876
2.0337635 -0.0483536 0.6998334 0.178881 -0.248026 0.003919 7.4162386 5.4034520 1.5924775 60.0422833 18.8043941 8.1366641 12.0234218
1.9795423 -0.0104886 0.7693119 0.200247 -0.220353 0.006691 2.0341076 1.8883765 0.9100360 53.3753524 21.6963387 14.9672114 13.4359468
1.9089383 0.0246186 0.8271930 0.216703 -0.187591 0.007513 -1.4141816 -1.6877378 -1.0113354 45.8108208 24.1631477 20.2631705 15.2065131
1.8254482 0.0567146 0.8725645 0.228762 -0.152765 0.005995 -2.7584697 -4.2864838 -2.8705130 38.2175085 26.2148975 24.1191516 16.7952071
1.7322245 0.0856269 0.9059120 0.237210 -0.118824 0.002558 -2.8206925 -5.7946858 -4.1096256 31.0870985 27.9149661 26.7577795 18.4679125
1.9721492 0.0223482 0.6939332 0.223967 -0.215233 0.003455 0.3500433 0.3678996 0.0776695 52.0559832 24.2411041 7.2285570 14.0156665
1.9130331 0.0543211 0.7573964 0.239105 -0.188159 0.005371 -2.2376128 -2.8957099 -1.0430220 45.8005194 26.4580894 13.2186381 15.4624727
1.8385850 0.0838483 0.8094690 0.250022 -0.157590 0.005072 -3.3377445 -5.4273025 -2.5071421 38.9769324 28.3445724 17.8834947 16.9773658
1.7521168 0.1107032 0.8495516 0.257062 -0.126218 0.002703 -3.3022253 -6.8850783 -3.6386449 32.3230852 29.8983957 21.2993458 18.4937325
1.8998974 0.0817285 0.6877753 0.257282 -0.181564 0.002497 -3.1497146 -4.5089590 -0.7332037 44.2150970 28.4105248 6.3960236 15.9496578
1.8368801 0.1085949 0.7450187 0.267324 -0.156374 0.003308 -3.8305418 -6.6496164 -1.8858015 38.6433517 30.1073358 11.6718446 17.1556434
1.7590593 0.1335535 0.7909289 0.273798 -0.128926 0.002148 -3.6893344 -7.9741440 -2.9443519 32.6750112 31.5718169 15.7096925 18.6258328
1.8202840 0.1306099 0.6815733 0.280637 -0.149974 0.001511 -4.2011974 -7.9480303 -1.0361617 37.0219990 31.6128106 5.5645982 17.7724323
1.7533615 0.1535109 0.7321521 0.286813 -0.127277 0.001250 -3.9459292 -9.0126277 -2.0656641 32.0763927 32.8639543 10.0948316 18.9494630
1.7356135 0.1703716 0.6751743 0.295808 -0.121668 0.000210 -3.7210583 -9.1546396 -0.9731906 30.9513192 34.3408308 4.9616766 19.3293094
1.7046480 0.1850655 0.6212299 0.301329 -0.111869 0.000001 -4.3856717 -11.9606098 -0.0000000 28.2525746 33.6003518 0.0006922 19.9339446
1.7878641 0.1504791 0.6212299 0.289582 -0.138427 -0.000000 -3.9850333 -8.4218320 -0.0000000 34.5172789 32.9184805 0.0002477 18.3118385
1.8692653 0.1068695 0.6212299 0.270858 -0.168506 0.000001 -3.8890635 -6.3050877 -0.0000000 41.2623181 30.1043512 0.0000940 16.7632101
1.9454196 0.0530720 0.6212299 0.242961 -0.201792 0.000000 -1.5579314 -1.8889292 -0.0000000 48.9127008 26.4939786 0.0001073 14.7508663
2.0130808 -0.0119553 0.6212299 0.203857 -0.235930 0.000001 4.0010585 3.4773831 0.0000000 57.0742949 21.6874645 -0.0000379 12.8224359
2.0682995 -0.0885032 0.6212299 0.152352 -0.267189 0.000000 13.4111978 7.6836551 0.0000001 64.9016012 15.4921870 0.0000879 10.7762632
2.1065960 -0.1753517 0.6212299 0.088905 -0.290469 0.000001 24.5381316 7.5404361 0.0000001 71.3052094 7.9779636 -0.0000810 9.2465654
2.1237662 -0.2691426 0.6212299 0.016860 -0.300390 0.000000 32.5573371 1.8286784 0.0000002 75.1124002 -0.5974064 0.0000679 8.2212959
2.1172255 -0.3644554 0.6212299 -0.057661 -0.293711 0.000001 32.6446369 -6.4378671 0.0000002 75.5174920 -9.8531375 -0.0001000 8.3267100
2.0871794 -0.4549494 0.6212299 -0.127422 -0.270848 0.000000 25.0246465 -11.8210280 0.0000002 72.1398487 -19.3054971 0.0000641 9.1835314
2.0367121 -0.5351254 0.6212299 -0.186708 -0.235706 0.000001 14.2636191 -11.3422836 0.0000001 65.2009219 -28.0907545 -0.0001228 10.8780275
1.9707074 -0.6016323 0.6212299 -0.232829 -0.194046 0.000000 5.4161418 -6.5246807 0.0000001 55.8434658 -35.1969657 0.0000457 12.7173505
1.8944231 -0.6534534 0.6212299 -0.266261 -0.151223 0.000001 0.2918057 -0.5158936 0.0000000 45.6877652 -40.1420879 -0.0001545 14.7297868
1.8125752 -0.6913030 0.6212299 -0.288652 -0.110855 0.000001 -1.6280929 4.2587574 -0.0000000 35.9599560 -43.0767316 -0.0000118 16.3514276
1.7296780 -0.7167433 0.6212299 -0.303024 -0.074228 0.000001 -1.9737109 8.0944395 -0.0000001 27.5077757 -45.1964671 -0.0003403 18.0137314
1.6720534 -0.7250288 0.5590416 -0.305971 -0.054646 0.001581 -1.8595380 10.5064058 1.1757840 22.2642919 -44.2185826 -5.9591211 18.8362127
1.6882404 -0.7097260 0.4919868 -0.296240 -0.062224 0.003225 -1.5771412 7.6478586 1.9597070 24.1409957 -43.5052979 -13.3576378 18.3608766
1.6954281 -0.6850912 0.4231513 -0.280261 -0.067523 0.004714 -1.4592091 6.2626737 2.6308343 25.0109294 -41.2503512 -20.6446146 18.1828744
1.6917925 -0.6514859 0.3558662 -0.258649 -0.069799 0.005400 -1.2451723 4.8562247 2.9798152 25.2004341 -38.0326576 -27.7087019 17.8616238
1.6764978 -0.6098459 0.2929033 -0.231458 -0.068125 0.005132 -1.0029515 3.6423532 3.0946350 24.3822231 -33.9664394 -34.0974210 17.8975730
1.6495064 -0.5616941 0.2366405 -0.200322 -0.062179 0.003888 -0.7546238 2.6122145 3.0023147 22.7789856 -29.3192243 -39.5256996 17.8745322
1.6114422 -0.5089169 0.1888209 -0.166324 -0.051995 0.002081 -0.5487873 1.8541556 2.8741088 20.4809134 -24.4175031 -43.8819239 18.2086031
1.5633959 -0.4535139 0.1504372 -0.131452 -0.038288 0.000168 -0.3837492 1.2997486 2.7610877 17.7957751 -19.4692658 -47.0990427 18.4771723
1.5067035 -0.3973666 0.1217400 -0.096739 -0.022125 -0.001243 -0.2550194 0.8981909 2.7238431 14.8402283 -14.7497857 -49.3373383 19.0844059
1.4427531 -0.3420878 0.1023547 -0.063816 -0.004929 -0.001812 -0.1455775 0.5724468 2.6986678 11.9433105 -10.3081633 -50.7152279 19.5246961
1.3728589 -0.2889569 0.0914559 -0.033319 0.012017 -0.001355 -0.0535478 0.3071871 2.7496556 9.1375233 -6.2721311 -51.4476873 20.2571433
1.2982122 -0.2389280 0.0879297 -0.006159 0.027540 0.000032 0.0272503 0.0671453 2.7144728 6.6166291 -2.6497720 -51.7324977 20.7523481
1.2199325 -0.1926866 0.0905113 0.017416 0.040809 0.002137 0.0997528 -0.1471704 2.8733625 4.3606396 0.5530436 -51.6148054 21.4815478
1.1391921 -0.1507158 0.0978629 0.036970 0.051341 0.004535 0.1555191 -0.3335603 2.8455079 2.5190989 3.2893837 -51.1284030 21.8939264
1.0580037 -0.1135929 0.1084989 0.052785 0.058898 0.007104 0.2676941 -0.6666184 3.7914328 0.7542931 5.8481269 -51.9163903 22.5808615
1.7356135 0.1703716 0.5672855 0.295803 -0.121667 -0.000210 -3.7210245 -9.1545564 0.9731817 30.9533153 34.3405670 -4.9616375 19.3302453
1.7533615 0.1535109 0.5103077 0.286815 -0.127278 -0.001247 -3.9459472 -9.0126686 2.0656735 32.0757889 32.8639654 -10.0952231 18.9488303
1.7590593 0.1335535 0.4515308 0.273794 -0.128926 -0.002148 -3.6893007 -7.9740711 2.9443250 32.6760244 31.5722153 -15.7088476 18.6271961
1.7521168 0.1107032 0.3929082 0.257064 -0.126218 -0.002700 -3.3022398 -6.8851086 3.6386609 32.3224085 29.8981648 -21.3002243 18.4927876
1.7322245 0.0856269 0.3365477 0.237208 -0.118825 -0.002559 -2.8206707 -5.7946410 4.1095938 31.0878341 27.9158323 -26.7567568 18.4695674
1.6997347 0.0592533 0.2844319 0.215405 -0.106901 -0.001561 -2.2998101 -4.7696044 4.3599659 28.9757888 25.7308404 -31.8246737 18.6431503
1.6556234 0.0326177 0.2381514 0.192699 -0.090944 0.000174 -1.8008512 -3.8797628 4.4486663 26.1818968 23.3655501 -36.3537827 18.9220643
1.6013159 0.0067063 0.1987489 0.170310 -0.071942 0.002356 -1.3370293 -3.0994994 4.3747845 22.8656466 20.9453516 -40.1863874 19.3153679
1.5384595 -0.0176705 0.1666920 0.148897 -0.050961 0.004635 -0.9425646 -2.4629844 4.2250885 19.3141342 18.4866678 -43.3395708 19.7771351
1.4687170 -0.0399440 0.1419474 0.129122 -0.029367 0.006595 -0.6049178 -1.9079600 3.9478731 15.6774807 16.1388742 -45.7979788 20.2750163
1.3936219 -0.0597977 0.1241136 0.110941 -0.008037 0.008038 -0.3477762 -1.4930350 3.7168489 12.1801089 13.7950737 -47.6630434 20.7725285
1.3144935 -0.0771275 0.1125567 0.094463 0.011897 0.008778 -0.1428469 -1.1195599 3.3633173 8.8860860 11.6340800 -49.0615682 21.2600761
1.2323604 -0.0919776 0.1065342 0.079342 0.029966 0.008784 0.0039589 -0.8960955 3.2796032 5.9048569 9.4582642 -49.8364917 21.7326593
1.1476453 -0.1043492 0.1053121 0.065469 0.045555 0.008191 0.0952719 -0.5453281 2.4734589 3.2404008 7.6269645 -51.0390505 22.1306573
1.8202840 0.1306099 0.5608865 0.280640 -0.149975 -0.001508 -4.2012297 -7.9480913 1.0361696 37.0206549 31.6129403 -5.5653280 17.7716772
1.8368801 0.1085949 0.4974411 0.267322 -0.156373 -0.003309 -3.8305280 -6.6495923 1.8857946 38.6438964 30.1073308 -11.6711044 17.1559970
1.8385850 0.0838483 0.4329908 0.250025 -0.157590 -0.005068 -3.3377765 -5.4273545 2.5071662 38.9761282 28.3441561 -17.8843710 16.9763224
1.8254482 0.0567146 0.3698952 0.228761 -0.152765 -0.005995 -2.7584593 -4.2864677 2.8705021 38.2180789 26.2151741 -24.1182423 16.7958554
1.7978312 0.0280815 0.3105577 0.205209 -0.142215 -0.005851 -2.2589199 -3.4272321 3.1251574 36.1656981 23.8951692 -29.9745774 17.0392424
1.7567573 -0.0008975 0.2570659 0.180298 -0.126077 -0.004614 -1.8094770 -2.7456473 3.2811438 33.1779128 21.3458236 -35.2490550 17.2592386
1.7038283 -0.0290476 0.2109069 0.155888 -0.105686 -0.002556 -1.4463248 -2.2574825 3.4493797 29.3478502 18.7587441 -39.7246231 17.8508416
1.6409645 -0.0553636 0.1728573 0.132654 -0.082152 -0.000134 -1.0948825 -1.8203326 3.5011478 25.1564687 16.1466648 -43.3613335 18.3284020
1.5701134 -0.0791229 0.1430437 0.111658 -0.057217 0.002205 -0.7873143 -1.4618242 3.5092330 20.7460394 13.6562918 -46.1685959 19.0654485
1.4930186 -0.0999065 0.1211004 0.092748 -0.032035 0.004080 -0.5070428 -1.1314265 3.3841522 16.4913571 11.2418838 -48.2189791 19.6067033
1.4110536 -0.1175514 0.1063625 0.076217 -0.008024 0.005267 -0.2803301 -0.8660853 3.2465474 12.4077576 9.0498870 -49.6408258 20.3540740
1.3250588 -0.1320420 0.0980374 0.061385 0.014268 0.005704 -0.0955388 -0.6261183 2.9869788 8.7621592 6.9491097 -50.5883168 20.8180680
1.2350143 -0.1432988 0.0953726 0.048482 0.034066 0.005435 0.0403153 -0.4391318 2.7431000 5.3867354 5.0839529 -51.2468912 21.5189018
1.8998974 0.0817285 0.5546845 0.257279 -0.181563 -0.002496 -3.1496828 -4.5089134 0.7331963 44.2159641 28.4104106 -6.3959726 15.9503547
1.9130331 0.0543211 0.4850633 0.239106 -0.188160 -0.005369 -2.2376229 -2.8957230 1.0430267 45.8001173 26.4582289 -13.2188862 15.4622056
1.9089383 0.0246186 0.4152668 0.216701 -0.187591 -0.007513 -1.4141473 -1.6876969 1.0113108 45.8114596 24.1633856 -20.2628071 15.2074040
1.8880040 -0.0066458 0.3482499 0.191145 -0.179573 -0.008521 -0.9186225 -1.0305305 0.9163804 44.1931367 21.6503593 -27.0249489 15.2935174
1.8512832 -0.0382700 0.2867297 0.164013 -0.164300 -0.008072 -0.7689874 -0.8270384 1.0284553 41.1295096 18.8966987 -33.2361269 15.6360145
1.8005645 -0.0689104 0.2327950 0.137235 -0.142996 -0.006385 -0.7758101 -0.8172583 1.3740593 36.9078126 16.1149099 -38.5769878 16.2232188
1.7381063 -0.0973636 0.1876791 0.112075 -0.117167 -0.003981 -0.8087034 -0.8552753 1.9086544 31.9612418 13.3055085 -42.8983965 16.9326038
1.6662573 -0.1227396 0.1517673 0.089624 -0.088861 -0.001448 -0.7332388 -0.8028270 2.3617367 26.6935922 10.6796695 -46.1868887 17.7475304
1.5871211 -0.1445109 0.1247815 0.070061 -0.059699 0.000733 -0.5916658 -0.7003530 2.7275654 21.4637191 8.1953499 -48.5222463 18.5665573
1.5023301 -0.1624571 0.1060252 0.053388 -0.031277 0.002227 -0.3937530 -0.5425089 2.8476485 16.5233927 5.9655984 -50.0753932 19.3609546
1.4128882 -0.1765422 0.0946203 0.039278 -0.004535 0.002945 -0.2055936 -0.3916561 2.8788906 11.9764807 3.9146846 -51.0237381 20.1331903
1.3190097 -0.1867244 0.0896900 0.027327 0.019578 0.002857 -0.0395711 -0.2509883 2.7838920 7.9402931 2.1465570 -51.5074432 20.8221581
1.9721492 0.0223482 0.5485265 0.223968 -0.215233 -0.003453 0.3500074 0.3678619 -0.0776615 52.0554284 24.2411059 -7.2287312 14.0150638
1.9795423 -0.0104886 0.4731479 0.200246 -0.220353 -0.006691 2.0341127 1.8883813 -0.9100382 53.3756363 21.6962287 -14.9669008 13.4361122
1.9675835 -0.0448116 0.3987335 0.172894 -0.216516 -0.008939 2.7377229 2.2804173 -1.8939552 52.5748993 18.9393060 -22.6797884 13.4762314
1.9371331 -0.0793996 0.3288017 0.143459 -0.203314 -0.009512 2.4670386 1.8687115 -2.4026205 49.8066693 15.9326959 -29.9710163 13.6953380
1.8900583 -0.1127639 0.2662597 0.114354 -0.182227 -0.008499 1.5482709 1.0788032 -2.0437137 45.3193688 12.9540762 -36.3768834 14.4324241
1.8289655 -0.1435074 0.2130161 0.087054 -0.154657 -0.006420 0.5852978 0.3785971 -1.0369735 39.6998020 9.9439760 -41.5954125 15.2045597
1.7567049 -0.1705768 0.1698909 0.063163 -0.123364 -0.003883 -0.0974668 -0.0588529 0.2341676 33.4783077 7.1958681 -45.5763702 16.2927426
1.6759011 -0.1933455 0.1367944 0.042815 -0.090219 -0.001597 -0.3882904 -0.2185925 1.3049428 27.2233629 4.6270482 -48.3590080 17.2011893
1.5886373 -0.2115611 0.1130405 0.026274 -0.057444 0.000077 -0.4214256 -0.2173910 2.1083297 21.2002358 2.4085682 -50.1538952 18.3098853
1.4963003 -0.2252097 0.0976495 0.012763 -0.026242 0.000861 -0.2932354 -0.1288489 2.4835526 15.7635282 0.4476920 -51.1769940 19.1213775
1.3995239 -0.2343483 0.0895915 0.002185 0.002266 0.000823 -0.1321251 -0.0270939 2.7071605 10.8603443 -1.2057398 -51.6383792 20.0901040
2.0337635 -0.0483536 0.5426264 0.178880 -0.248025 -0.003918 7.4162707 5.4034753 -1.5924843 60.0426559 18.8044287 -8.1366529 12.0239631
2.0331000 -0.0861360 0.4622053 0.149681 -0.249642 -0.007164 9.2114473 5.6707626 -4.0225906 60.6080319 15.6791586 -16.6670834 11.7234561
2.0112605 -0.1240027 0.3842966 0.118201 -0.240256 -0.008802 8.7112738 4.5335288 -5.9396412 58.5727120 12.4155520 -25.0433769 11.9143788
1.9698651 -0.1603094 0.3128065 0.086742 -0.220541 -0.008653 6.5214265 2.8391333 -6.3302830 54.2445201 9.1602064 -32.6533036 12.6040323
1.9117180 -0.1934682 0.2505898 0.057565 -0.192378 -0.007038 3.8051470 1.3440354 -5.0742841 48.1124018 5.9574890 -39.0435960 13.5927519
1.8401858 -0.2222714 0.1991590 0.032271 -0.158693 -0.004722 1.6318877 0.4330543 -2.9710389 40.9975434 3.0561429 -43.9588293 14.7744581
1.7585289 -0.2460179 0.1588047 0.011472 -0.122146 -0.002463 0.3242034 0.0513835 -0.8190580 33.5939123 0.4555884 -47.4427893 16.0088352