# volRat = 0.650000
# viscRat = 5.000000
# alpha = 0.500000
# shRate = 3.182000
# tnum = 9400
# time = 9.488282
VARIABLES = X, Y, Z, U, V, W, F_B0, F_B1, F_B2, F_0, F_1, F_2, T
ZONE N=2562 E=5120 F=FEPOINT ET=TRIANGLE
1.5902850 0.2191985 0.6212299 0.306138 -0.086646 -0.000000 1.9743417 7.2512530 0.0000012 23.0826361 40.3852544 0.0000006 21.2298769
-1.6681747 0.7284825 0.6212299 0.309365 0.050691 -0.000000 -1.9329996 11.3152720 0.0000029 -22.4832777 49.7734195 0.0000024 18.6290692
1.6681745 -0.7284829 0.6212299 -0.309364 -0.050691 -0.000000 1.9329841 -11.3151944 0.0000029 22.4830691 -49.7729682 0.0000025 18.6275967
-1.5902849 -0.2191989 0.6212299 -0.306138 0.086646 -0.000000 -1.9743209 -7.2511791 0.0000012 -23.0828679 -40.3849001 0.0000010 21.2290125
0.9710022 -0.1341318 1.1283804 0.033334 0.069031 -0.002597 -1.3463266 1.4212750 14.0421160 -1.4858338 3.3342317 55.9008547 22.6220195
0.9710022 -0.1341318 0.1140794 0.033334 0.069031 0.002597 -1.3463314 1.4213049 -14.0422329 -1.4858412 3.3342529 -55.9009751 22.6220192
-0.9710023 0.1341316 1.1283804 -0.033333 -0.069036 -0.002597 1.3462635 -1.4212047 14.0414517 1.4856554 -3.3306119 55.9006562 22.6222636
-0.9710023 0.1341316 0.1140794 -0.033333 -0.069036 0.002597 1.3462679 -1.4212345 -14.0415659 1.4856621 -3.3306335 -55.9007740 22.6222633
-0.0976607 0.3635254 0.8424188 0.180461 -0.044316 0.008249 -12.3596653 -54.6408960 -32.8030766 -1.9955239 -5.3310766 0.8470590 25.4673786
0.0976608 -0.3635249 0.8424184 -0.180183 0.045505 0.007571 11.7542310 51.9642352 -31.1959093 1.4013423 2.7277615 2.3588316 25.4552374
-0.0976607 0.3635254 0.4000410 0.180461 -0.044316 -0.008249 -12.3596632 -54.6408347 32.8029239 -1.9955192 -5.3310056 -0.8471930 25.4673789
0.0976608 -0.3635249 0.4000414 -0.180183 0.045505 -0.007571 11.7541959 51.9640588 31.1959370 1.4013082 2.7275915 -2.3588265 25.4552370
1.6137663 0.2112635 0.6701965 0.305908 -0.088710 -0.000724 -3.4389414 -11.8983455 -1.0105297 23.3789463 35.9544567 4.0386357 21.0686925
1.6317105 0.1985811 0.7237386 0.300006 -0.092707 -0.001288 -3.1097187 -10.1102767 -1.9556862 24.5701838 35.3418681 9.1013573 20.6232047
1.6414458 0.1813927 0.7799444 0.290104 -0.094216 -0.001592 -2.9936655 -9.2511224 -2.8999772 25.0933337 34.2328124 14.2473105 20.4407627
1.6411616 0.1600234 0.8366290 0.275768 -0.092606 -0.001828 -2.7631401 -8.2331149 -3.6940667 25.1956441 32.7610687 19.5327405 20.0971047
1.6298776 0.1349687 0.8918897 0.257881 -0.087656 -0.002322 -2.4575217 -7.1844477 -4.3253309 24.5549828 30.8954500 24.7525852 20.0608340
1.6072693 0.1069938 0.9438879 0.236722 -0.079132 -0.003240 -2.0538478 -6.0164449 -4.6779106 23.3382378 28.6838605 29.7530876 19.9170580
1.5736139 0.0770801 0.9910177 0.213598 -0.067264 -0.004562 -1.6245692 -4.8940691 -4.7981642 21.4592254 26.2131487 34.3565834 20.0697619
1.5296944 0.0463227 1.0320441 0.189266 -0.052405 -0.006138 -1.1968093 -3.8345543 -4.6709329 19.1451562 23.5164916 38.4636178 20.1358549
1.4766577 0.0158071 1.0661919 0.165033 -0.035454 -0.007678 -0.8265871 -2.9522522 -4.4327777 16.4072470 20.7166417 41.9342909 20.4737960
1.4158566 -0.0134975 1.0931580 0.141405 -0.017224 -0.008934 -0.5156388 -2.2113631 -4.0843030 13.5422598 17.8420057 44.7721595 20.6650500
1.3487127 -0.0408081 1.1130541 0.119263 0.001220 -0.009579 -0.2820072 -1.6762791 -3.8229723 10.5650659 14.9885546 46.9160352 21.1136145
1.2766314 -0.0655563 1.1263175 0.098613 0.018915 -0.009584 -0.0967988 -1.2167317 -3.4630495 7.7549285 12.2370550 48.5790681 21.3613901
1.2010059 -0.0873797 1.1336139 0.079840 0.035033 -0.009051 0.0358632 -0.8335850 -3.0197807 5.0669943 9.6731819 49.9719290 21.8191532
1.1232976 -0.1061034 1.1357675 0.062679 0.049124 -0.007564 0.1732087 -0.7864340 -3.7476040 2.7372836 6.9802349 49.9513371 22.0568535
1.0457333 -0.1216384 1.1337171 0.047334 0.060440 -0.005279 0.4648231 -0.9172157 -6.1369904 0.6561306 4.6090666 49.4514128 22.4884422
1.7796992 -0.6983891 0.6898416 -0.291430 -0.095375 -0.002588 -1.7271936 5.2833902 -0.7489043 32.3669865 -43.0012210 7.4183854 16.8906598
1.7961179 -0.6770073 0.7607359 -0.277552 -0.104863 -0.004662 -1.5865467 4.2397330 -1.3063779 34.2544639 -40.9930435 15.0333807 16.4932003
1.7992486 -0.6472580 0.8317412 -0.257827 -0.110092 -0.006320 -1.1787127 2.8303373 -1.4284720 34.9930905 -38.0429387 22.8323804 16.1878255
1.7885158 -0.6098008 0.8999205 -0.232754 -0.110168 -0.006905 -0.8231437 1.8147377 -1.3479181 34.2622465 -34.1825925 30.0248420 16.1292231
1.7638829 -0.5660778 0.9624709 -0.203547 -0.104607 -0.006292 -0.5907939 1.2180686 -1.2672835 32.3203716 -29.7032945 36.2967200 16.2363929
1.7261444 -0.5179866 1.0171512 -0.171565 -0.093477 -0.004758 -0.4730967 0.9272417 -1.3240740 29.3318956 -24.9650655 41.4021273 16.5989320
1.6767395 -0.4675378 1.0625670 -0.138690 -0.077556 -0.002707 -0.4340969 0.8207573 -1.6088700 25.6660252 -20.1959110 45.2552788 17.1079370
1.6174429 -0.4165564 1.0982113 -0.106288 -0.058134 -0.000751 -0.3838784 0.7094516 -1.9487876 21.6789041 -15.7001486 47.9718610 17.7533503
1.5500680 -0.3664969 1.1243145 -0.075570 -0.036872 0.000634 -0.3145914 0.5749874 -2.3251191 17.6870967 -11.5339051 49.7253201 18.4671195
1.4762656 -0.3183932 1.1416173 -0.047215 -0.015277 0.001189 -0.2109334 0.3851857 -2.5479216 13.8741723 -7.8355655 50.7578493 19.2289177
1.3974270 -0.2728966 1.1511421 -0.021857 0.005161 0.000856 -0.1032646 0.1898331 -2.7011583 10.4260820 -4.5307773 51.2685561 19.9561983
1.3146602 -0.2303629 1.1540296 0.000390 0.023458 -0.000240 -0.0022191 0.0030408 -2.7120179 7.3684885 -1.6607247 51.4285911 20.6665128
1.2287636 -0.1909372 1.1514205 0.019428 0.038884 -0.001900 0.0791647 -0.1539111 -2.6331341 4.7166976 0.8462672 51.4470196 21.3406394
1.1399577 -0.1546820 1.1443954 0.035209 0.051176 -0.003787 0.1281601 -0.2554346 -2.3274415 2.4901517 3.0385451 51.5316086 21.9215929
1.8644290 -0.6633126 0.6962563 -0.270983 -0.134908 -0.002774 -0.6598724 1.3269918 -0.2306187 41.7424820 -40.4174519 8.3395699 15.2185662
1.8790320 -0.6346292 0.7729994 -0.252004 -0.145512 -0.005349 0.2588663 -0.4535941 0.1736714 43.7580520 -37.4511113 17.0759758 14.6241248
1.8770426 -0.5979328 0.8482376 -0.226817 -0.149371 -0.006659 0.8759758 -1.3653083 0.8735989 43.7919768 -33.5964234 25.3736354 14.5115151
1.8587485 -0.5543767 0.9186814 -0.197020 -0.146335 -0.006706 1.0683516 -1.4991925 1.4517066 42.0870641 -28.9121663 32.8342650 14.5090764
1.8250693 -0.5058869 0.9814650 -0.163698 -0.135989 -0.005579 0.8170557 -1.0374188 1.4628378 38.7637499 -23.9270095 39.0146335 14.9769533
1.7776971 -0.4546753 1.0346067 -0.129472 -0.119414 -0.003611 0.3752168 -0.4291799 0.8785028 34.4389981 -18.8336408 43.7164730 15.4923427
1.7187904 -0.4028095 1.0771902 -0.095462 -0.097860 -0.001638 -0.0338421 0.0341602 -0.1046418 29.5222258 -14.0591292 47.0543963 16.3772532
1.6505803 -0.3519426 1.1092522 -0.063415 -0.073440 -0.000161 -0.2597718 0.2186983 -1.0887256 24.5311696 -9.6541106 49.2003855 17.1722551
1.5750632 -0.3032215 1.1315021 -0.033912 -0.047966 0.000421 -0.3265766 0.1938929 -1.9447463 19.7154455 -5.7618342 50.4325555 18.1846398
1.4938337 -0.2573313 1.1450294 -0.007738 -0.023298 0.000045 -0.2640253 0.0384279 -2.4320088 15.3683760 -2.3292919 51.0242357 18.9888785
1.4080066 -0.2146014 1.1510624 0.015254 -0.000535 -0.001211 -0.1618241 -0.1521854 -2.7577385 11.4377845 0.5935388 51.1755405 19.9739515
1.3181258 -0.1751256 1.1508196 0.034574 0.019269 -0.003077 -0.0477380 -0.3260974 -2.8134600 8.1103194 3.1503700 51.0669337 20.6434160
1.2238851 -0.1389083 1.1454085 0.050596 0.035864 -0.005248 0.0537321 -0.5114887 -3.0504075 5.1867956 5.2858024 50.6498772 21.5149899
1.9434753 -0.6147250 0.7017585 -0.240535 -0.177580 -0.002997 3.2758157 -4.4477932 0.9703067 51.8107985 -35.9202613 9.3139194 13.2978746
1.9533528 -0.5786449 0.7832480 -0.215538 -0.187139 -0.004945 4.7974006 -5.5906389 2.7641406 53.2657234 -32.0536963 18.6617153 12.8902281
1.9439699 -0.5353629 0.8615820 -0.185028 -0.187933 -0.005673 5.1639438 -5.2080578 4.4726436 52.2199175 -27.2935075 27.4087341 12.8274214
1.9163323 -0.4867070 0.9330549 -0.150818 -0.179578 -0.004860 4.3436197 -3.7735221 5.1731466 48.9759065 -22.1638728 34.8358521 13.2099916
1.8723728 -0.4350123 0.9948757 -0.115219 -0.163080 -0.003098 2.8322439 -2.0709965 4.4767809 44.0872732 -16.8634071 40.6952316 13.9087079
1.8146947 -0.3825680 1.0455116 -0.080007 -0.139952 -0.001164 1.3608346 -0.7896677 2.8273513 38.2621498 -11.8675149 44.9248968 14.8714729
1.7460634 -0.3312249 1.0846483 -0.046889 -0.112605 0.000302 0.3154586 -0.1244605 0.8677009 32.1753841 -7.2782787 47.7148416 15.9372263
1.6689650 -0.2822497 1.1128834 -0.016724 -0.083343 0.000823 -0.2204432 0.0305258 -0.8208693 26.2537267 -3.2519277 49.3447199 17.0730835
1.5853497 -0.2363666 1.1313415 0.009987 -0.054326 0.000256 -0.3854959 -0.0995944 -2.0255089 20.7948728 0.2403775 50.1536675 18.1761787
1.4965302 -0.1938935 1.1413607 0.033019 -0.027122 -0.001284 -0.3375807 -0.3267681 -2.6953633 15.9728819 3.2078347 50.4091003 19.2092515
1.4031311 -0.1548980 1.1442797 0.052410 -0.002863 -0.003539 -0.2152630 -0.5532010 -3.0354291 11.7531098 5.7537383 50.3261088 20.1744052
1.3049909 -0.1193600 1.1413327 0.068064 0.017978 -0.006218 -0.0800557 -0.7306534 -3.1246145 8.1528026 7.8695263 50.0906912 21.0485113
2.0129218 -0.5515353 0.7064179 -0.197672 -0.219934 -0.002439 10.7892345 -9.7236880 2.8215510 61.3262925 -29.3759554 10.0146379 11.3801294
2.0152005 -0.5086468 0.7913074 -0.166739 -0.226184 -0.003573 12.2299168 -9.1070323 6.3043787 61.6030989 -24.6672385 19.8081189 11.0356708
1.9961629 -0.4601196 0.8711692 -0.131693 -0.221252 -0.003077 10.9841910 -6.6424777 8.6066417 58.9437958 -19.5190734 28.5534196 11.4088049
1.9577149 -0.4083364 0.9421352 -0.095087 -0.206084 -0.001480 7.9651875 -3.7164108 8.6644419 53.9622155 -14.1776042 35.7729156 12.0749673
1.9028160 -0.3557565 1.0017498 -0.059073 -0.182172 0.000484 4.5453864 -1.4350976 6.6169410 47.4584636 -9.1107393 41.1972650 13.2516281
1.8348210 -0.3044097 1.0490896 -0.025517 -0.152526 0.001984 1.9106780 -0.2564082 3.6822555 40.3529450 -4.4376355 44.9059731 14.4477308
1.7568380 -0.2556737 1.0844610 0.004822 -0.119792 0.002369 0.3226878 0.0338184 0.8282231 33.2786371 -0.3825294 47.2149007 15.8879654
1.6713404 -0.2103081 1.1089378 0.031219 -0.086763 0.001575 -0.3542600 -0.1586039 -1.2367435 26.7402470 3.1269423 48.4422557 17.0962582
1.5800226 -0.1686155 1.1239358 0.053863 -0.055254 -0.000388 -0.5209801 -0.5147835 -2.5749221 20.8653064 6.0550761 48.9570071 18.4371484
1.4837984 -0.1306283 1.1309329 0.072561 -0.026700 -0.003147 -0.4203510 -0.8217908 -3.1620317 15.8020346 8.5252579 49.0391222 19.4591300
1.3828370 -0.0962795 1.1313114 0.087520 -0.001840 -0.006357 -0.2603162 -1.0704132 -3.4508241 11.4421379 10.5613630 48.8634310 20.5740247
2.0678357 -0.4741756 0.7098687 -0.141492 -0.257094 -0.001341 20.8483272 -11.4983426 4.9825588 68.8653921 -21.0183102 10.3947497 9.6794582
2.0599964 -0.4261274 0.7965035 -0.105894 -0.257294 -0.001064 20.2725905 -8.3731279 9.6698019 67.4490609 -15.9558687 20.2159323 9.7713559
2.0296736 -0.3747372 0.8761269 -0.068607 -0.244872 0.000548 15.8403514 -4.3907327 11.6105765 62.9599358 -10.7581175 28.7618429 10.4724149
1.9798234 -0.3225694 0.9450873 -0.032316 -0.221699 0.002715 9.9475650 -1.2975955 10.2228530 56.3170550 -5.7441032 35.5507294 11.6816186
1.9142568 -0.2717876 1.0015096 0.001250 -0.190880 0.004300 4.8402396 0.2070779 6.7181509 48.4814539 -1.1108129 40.4971429 13.1382764
1.8367428 -0.2238572 1.0451266 0.030947 -0.155609 0.004736 1.5314222 0.4041703 2.8386393 40.4392339 2.9017851 43.7309989 14.6991168
1.7504004 -0.1795582 1.0767693 0.056526 -0.119199 0.003722 -0.1178102 -0.0667742 -0.2933365 32.7955019 6.3400802 45.6430894 16.2272974
1.6574588 -0.1391656 1.0978384 0.077986 -0.083901 0.001374 -0.6667801 -0.6747419 -2.2784167 25.9556984 9.1688670 46.6480521 17.6635330
1.5592582 -0.1026628 1.1099106 0.095526 -0.051542 -0.001913 -0.6811232 -1.1742914 -3.3286786 19.9714481 11.5334818 47.0352354 18.9458265
1.4563615 -0.0699169 1.1145182 0.109230 -0.022996 -0.005714 -0.4948236 -1.4914777 -3.7292427 14.8852437 13.4546448 47.0654977 20.1066438
2.1031901 -0.3853549 0.7116763 -0.073879 -0.283350 0.000246 29.2611601 -7.6179063 6.5841543 73.0825087 -11.7283517 10.3866722 8.5452875
2.0836308 -0.3348647 0.7981744 -0.036290 -0.275454 0.002025 24.8296112 -3.1689761 11.2827082 69.8372676 -6.7765489 19.9449956 9.0407259
2.0415987 -0.2836896 0.8758588 -0.000006 -0.254799 0.004486 16.8221575 0.2387831 11.8731421 63.7181909 -1.9432832 28.0547610 10.2978100
1.9809620 -0.2340647 0.9416274 0.032914 -0.224428 0.006511 9.0116521 1.6137859 9.0087129 55.7960188 2.5212346 34.3447816 11.7772316
1.9059841 -0.1875050 0.9942843 0.061429 -0.188099 0.007234 3.4143265 1.3146737 4.6557670 47.1591087 6.4166445 38.7747229 13.5939567
1.8204426 -0.1447899 1.0341271 0.085409 -0.149473 0.006253 0.4234226 0.2788833 0.7788207 38.7184473 9.7174029 41.6352643 15.2206892
1.7271948 -0.1061566 1.0623442 0.105104 -0.111393 0.003674 -0.7861369 -0.8203008 -1.9630183 30.9985540 12.4121508 43.3208953 16.9133891
1.6281159 -0.0715309 1.0805138 0.120809 -0.075948 -0.000046 -0.9825945 -1.5915193 -3.4076522 24.2281379 14.6308874 44.2075811 18.2741601
1.5242199 -0.0407138 1.0902731 0.132862 -0.044319 -0.004431 -0.8053114 -2.0589645 -4.0534301 18.4262639 16.3930577 44.6139139 19.6599094
2.1152980 -0.2901286 0.7115451 0.000152 -0.294019 0.001943 30.9945400 0.0810726 6.7431686 73.5221851 -2.4891421 10.0741377 8.3242557
2.0838559 -0.2404630 0.7960576 0.036150 -0.277704 0.004895 22.7640549 3.1741114 10.1142487 68.6431861 2.0786904 19.1342872 9.3549722
2.0310979 -0.1925118 0.8704264 0.068209 -0.249996 0.007581 13.1593737 3.9041691 9.1783496 61.3568398 6.3561754 26.6638086 10.9097031
1.9613594 -0.1477936 0.9322511 0.095246 -0.214644 0.008962 5.5688697 2.7295118 5.5586964 52.7694702 10.1097806 32.3659477 12.7159230
1.8788873 -0.1070670 0.9809434 0.117332 -0.175592 0.008382 1.0798411 0.8010350 1.4857139 43.9116637 13.2455142 36.3485692 14.5406834
1.7871561 -0.0705241 1.0171922 0.134761 -0.136083 0.005956 -0.8792989 -0.9545355 -1.6498196 35.6136165 15.7661366 38.9156670 16.2929129
1.6886419 -0.0380375 1.0423855 0.148305 -0.098670 0.002054 -1.3560962 -2.1409020 -3.4958819 28.1899080 17.7985227 40.4920226 17.8681377
1.5848816 -0.0093509 1.0581714 0.158243 -0.064836 -0.002679 -1.1814114 -2.7519558 -4.2892578 21.8252544 19.4193197 41.4103405 19.2616135
2.1031413 -0.1948705 0.7094800 0.073455 -0.287672 0.003318 24.7381218 6.4147541 5.3312110 70.4751293 6.1355581 9.5434618 9.0621641
2.0611247 -0.1489518 0.7904750 0.104669 -0.264627 0.006775 15.4405231 6.3216331 6.8691208 64.4268058 10.1551861 17.9533918 10.3579994
1.9996495 -0.1063751 0.8605944 0.130290 -0.232465 0.009095 6.9970727 4.1439053 4.9379044 56.5354412 13.6926623 24.7840810 12.1547983
1.9230047 -0.0678587 0.9180929 0.150332 -0.195038 0.009423 1.5495298 1.2812082 1.5814099 47.9061995 16.6327884 29.9008504 13.9274359
1.8350878 -0.0335516 0.9628194 0.165527 -0.156009 0.007596 -1.0763201 -1.2281977 -1.5304826 39.4399259 19.0005601 33.4797344 15.8140884
1.7389577 -0.0032833 0.9956984 0.176689 -0.118070 0.003929 -1.7820756 -2.8142860 -3.4955661 31.7190425 20.8847388 35.8964969 17.3750209
1.6367325 0.0232380 1.0182165 0.184476 -0.083194 -0.000866 -1.6418388 -3.6410082 -4.4816414 24.9318977 22.3554837 37.4520873 18.9504089
2.0686768 -0.1054941 0.7058002 0.139336 -0.266931 0.003991 14.2894007 7.5447015 3.1190696 64.6424525 13.8240650 8.8574936 10.5554078
2.0182816 -0.0651753 0.7822122 0.163925 -0.240007 0.007336 6.8158673 4.7783176 3.1030401 58.0571365 17.1213410 16.4864325 12.0887415
1.9503861 -0.0289020 0.8475394 0.182559 -0.206530 0.008826 1.3635339 1.2564410 0.9948193 50.1941966 19.8918907 22.6039875 13.8241807
1.8688953 0.0032226 0.9005221 0.195858 -0.169844 0.008027 -1.4649689 -1.7774990 -1.5617319 42.0883465 22.0881819 27.1985319 15.5811559
1.7772756 0.0313927 0.9412952 0.205005 -0.133061 0.005057 -2.3173583 -3.7375005 -3.4791264 34.3776568 23.8194416 30.5070870 17.2486618
1.6782298 0.0559073 0.9709392 0.210663 -0.098380 0.000629 -2.1509021 -4.6851469 -4.5061568 27.4783844 25.1586785 32.7851514 18.7608771
2.0158972 -0.0260070 0.7010037 0.193627 -0.236872 0.003951 4.7933643 3.9584207 1.0816320 57.1428717 20.2516020 8.0588763 12.4892923
1.9594013 0.0081024 0.7722101 0.211399 -0.208977 0.006546 0.4072255 0.4206731 0.1935264 50.6182843 22.7727931 14.9240134 13.8900685
1.8870009 0.0382200 0.8324311 0.223585 -0.176587 0.007034 -2.1321245 -2.7852508 -1.6395422 43.3512171 24.8129743 20.3917686 15.5963961
1.8021768 0.0645623 0.8807222 0.231204 -0.142572 0.005189 -2.8956518 -4.8560994 -3.2855643 36.1127634 26.4363006 24.5411360 17.1093593
1.7081032 0.0873983 0.9174518 0.235383 -0.109531 0.001525 -2.6839390 -5.8840195 -4.3327036 29.3379773 27.6978977 27.5611383 18.6787850
1.9494005 0.0418690 0.6955870 0.235230 -0.202934 0.003332 -1.1678412 -1.3668208 -0.2774659 49.1042662 25.3050833 7.2246361 14.5260983
1.8885587 0.0701259 0.7612607 0.247066 -0.176273 0.004962 -2.9693961 -4.2338016 -1.4988258 43.0982015 27.2049074 13.3286323 15.9246529
1.8128365 0.0949231 0.8160951 0.254212 -0.146572 0.004323 -3.4928379 -6.1917702 -2.8774646 36.6356939 28.7499186 18.2255756 17.3620909
1.7255594 0.1164904 0.8593973 0.257456 -0.116280 0.001660 -3.1650477 -7.1264360 -3.8805031 30.3568976 29.9403226 21.9682656 18.7782570
1.8733214 0.0982021 0.6899166 0.265208 -0.169306 0.002251 -3.7163256 -5.8753599 -0.9441564 41.4420023 29.1605747 6.4713920 16.4513190
1.8090578 0.1215428 0.7498037 0.272362 -0.144950 0.002729 -3.9391920 -7.4999531 -2.1411120 36.1656604 30.6102898 11.9235064 17.5984844
1.7304189 0.1421665 0.7987804 0.275638 -0.118610 0.001232 -3.5282173 -8.3031566 -3.1495078 30.5678436 31.7979029 16.2321752 18.9776755
1.7908760 0.1441076 0.6841656 0.285681 -0.138535 0.001186 -4.1990822 -8.7355840 -1.1519743 34.5512120 32.1348611 5.7180900 18.2281474
1.7231154 0.1637599 0.7377046 0.289389 -0.116887 0.000543 -3.7321401 -9.3273912 -2.1982256 29.9204507 33.2042122 10.4852547 19.3301110
1.7042788 0.1811303 0.6781151 0.298517 -0.111316 -0.000129 -3.5291832 -9.5217719 -1.0449182 28.7867603 34.6194642 5.1654686 19.7226496
1.6726696 0.1952613 0.6212299 0.303345 -0.102581 -0.000000 -4.0345680 -12.0708071 -0.0000000 26.3343172 34.0924682 0.0000001 20.3063888
1.7573339 0.1632462 0.6212299 0.293839 -0.127452 -0.000000 -3.9116105 -9.0885312 -0.0000000 32.1620815 33.3735793 0.0000001 18.7590315
1.8410644 0.1225377 0.6212299 0.277781 -0.156437 -0.000000 -4.1780746 -7.4736426 -0.0000000 38.5632254 30.7708443 0.0000002 17.2560494
1.9205211 0.0718328 0.6212299 0.253087 -0.189224 -0.000000 -2.6686698 -3.5928057 -0.0000000 45.9567653 27.4447882 0.0000004 15.2860796
1.9925364 0.0098502 0.6212299 0.217515 -0.223850 -0.000000 1.6961144 1.6576742 0.0000000 53.9928349 22.9640139 0.0000004 13.3350195
2.0531848 -0.0640694 0.6212299 0.169477 -0.257033 -0.000000 10.1411662 6.7211715 0.0000001 62.0734592 17.2196270 0.0000006 11.2083452
2.0978477 -0.1491952 0.6212299 0.108718 -0.283706 -0.000000 21.3570599 8.2247220 0.0000003 69.0344747 10.0995113 0.0000005 9.4962975
2.1219135 -0.2426519 0.6212299 0.037800 -0.298139 -0.000000 31.0875653 3.9691047 0.0000004 73.7045712 1.8608404 0.0000008 8.2176770
2.1221222 -0.3392747 0.6212299 -0.037557 -0.296128 -0.000000 33.6836242 -4.2629982 0.0000005 75.1467249 -7.1600663 0.0000009 8.0393918
2.0979343 -0.4325677 0.6212299 -0.109926 -0.277077 -0.000000 27.7480078 -11.0099465 0.0000005 72.8595031 -16.5655933 0.0000010 8.6808773
2.0519108 -0.5165082 0.6212299 -0.172769 -0.244189 -0.000000 17.0707119 -12.0774466 0.0000004 66.8048569 -25.6113926 0.0000011 10.2507243
1.9887855 -0.5871001 0.6212299 -0.222579 -0.203233 -0.000000 7.3125574 -8.0035736 0.0000002 57.9465771 -33.2119413 0.0000011 12.0742396
1.9139688 -0.6428009 0.6212299 -0.259178 -0.159950 -0.000000 1.1753738 -1.9013636 0.0000000 47.8666690 -38.6863744 0.0000011 14.1202326
1.8324688 -0.6840075 0.6212299 -0.283939 -0.118455 -0.000000 -1.3534439 3.2346943 -0.0000001 37.9943184 -42.1196560 0.0000009 15.8228620
1.7491261 -0.7121488 0.6212299 -0.300171 -0.080354 -0.000000 -1.9954522 7.3925250 -0.0000001 29.2413678 -44.5674505 0.0000008 17.5526177
1.6909062 -0.7222270 0.5616767 -0.303950 -0.060130 0.001596 -2.0581222 10.3823036 1.1234842 23.7638002 -43.8030905 -5.6769516 18.4181254
1.7070824 -0.7074153 0.4971544 -0.294617 -0.067776 0.003281 -1.7048200 7.4575342 1.8547131 25.6667538 -43.0125425 -12.8106454 17.9577846
1.7137343 -0.6841718 0.4305889 -0.279492 -0.072823 0.004872 -1.5459852 6.0553025 2.4684763 26.4760266 -40.8980800 -19.8657555 17.7852580
1.7089716 -0.6529535 0.3651921 -0.259360 -0.074624 0.005656 -1.3100408 4.7320942 2.8083110 26.5345442 -37.8946110 -26.7237265 17.5103431
1.6919811 -0.6147295 0.3036610 -0.234280 -0.072152 0.005487 -1.0608699 3.6402468 2.9684870 25.5013661 -34.1417392 -32.9428113 17.5862595
1.6628202 -0.5709780 0.2483008 -0.205913 -0.065201 0.004310 -0.8114637 2.7298469 2.9700206 23.6332723 -29.9053697 -38.2449019 17.6351285
1.6222507 -0.5234518 0.2007799 -0.175219 -0.053940 0.002486 -0.6017446 2.0592290 2.9525506 21.0486399 -25.4881438 -42.5290093 18.0117118
1.5715111 -0.4739257 0.1620282 -0.144035 -0.039187 0.000417 -0.4202605 1.5371458 2.9078066 18.0918568 -21.0872377 -45.7728110 18.3403551
1.5120711 -0.4239826 0.1322689 -0.113224 -0.022033 -0.001388 -0.2708808 1.1480631 2.9077460 14.8842040 -16.9227406 -48.0874026 18.9674364
1.4454280 -0.3748919 0.1111546 -0.084126 -0.003909 -0.002575 -0.1390553 0.8175372 2.8636546 11.7783362 -13.0470209 -49.6230543 19.4314475
1.3729813 -0.3275783 0.0979507 -0.057136 0.013946 -0.002961 -0.0289825 0.5552696 2.8621247 8.7980655 -9.5442740 -50.5652804 20.1480865
1.2959943 -0.2826590 0.0916943 -0.032932 0.030386 -0.002504 0.0616135 0.3182503 2.7410692 6.1292696 -6.4203113 -51.1279334 20.6460453
1.2156570 -0.2405262 0.0913173 -0.011617 0.044535 -0.001366 0.1396286 0.1380317 2.8246161 3.7679768 -3.6292455 -51.2925238 21.3354612
1.1332212 -0.2014360 0.0957028 0.006524 0.055879 0.000088 0.1991366 -0.0263899 2.8094701 1.8548529 -1.2024116 -51.0556453 21.7394664
1.0507863 -0.1658255 0.1036086 0.021782 0.064083 0.001860 0.3493177 -0.2462598 3.9876943 0.0561914 0.9548302 -51.7395394 22.3899790
1.7042788 0.1811303 0.5643447 0.298517 -0.111316 0.000129 -3.5291834 -9.5217724 1.0449182 28.7867601 34.6194637 -5.1654684 19.7226496
1.7231154 0.1637599 0.5047551 0.289389 -0.116887 -0.000543 -3.7321400 -9.3273911 2.1982256 29.9204510 33.2042123 -10.4852545 19.3301109
1.7304190 0.1421665 0.4436794 0.275638 -0.118610 -0.001232 -3.5282176 -8.3031573 3.1495081 30.5678434 31.7979021 -16.2321748 18.9776754
1.7255594 0.1164904 0.3830625 0.257456 -0.116280 -0.001660 -3.1650476 -7.1264359 3.8805030 30.3568979 29.9403227 -21.9682655 18.7782569
1.7081032 0.0873983 0.3250080 0.235383 -0.109531 -0.001525 -2.6839390 -5.8840194 4.3327035 29.3379776 27.6978977 -27.5611383 18.6787848
1.6782298 0.0559073 0.2715205 0.210663 -0.098380 -0.000629 -2.1509022 -4.6851469 4.5061569 27.4783849 25.1586782 -32.7851513 18.7608769
1.6367325 0.0232380 0.2242433 0.184476 -0.083194 0.000866 -1.6418388 -3.6410080 4.4816412 24.9318982 22.3554836 -37.4520876 18.9504088
1.5848816 -0.0093509 0.1842883 0.158243 -0.064836 0.002679 -1.1814114 -2.7519555 4.2892574 21.8252552 19.4193195 -41.4103409 19.2616133
1.5242199 -0.0407138 0.1521867 0.132862 -0.044319 0.004431 -0.8053117 -2.0589650 4.0534311 18.4262642 16.3930568 -44.6139130 19.6599093
1.4563615 -0.0699169 0.1279415 0.109230 -0.022996 0.005714 -0.4948236 -1.4914775 3.7292423 14.8852442 13.4546445 -47.0654982 20.1066437
1.3828370 -0.0962795 0.1111483 0.087520 -0.001840 0.006357 -0.2603161 -1.0704130 3.4508234 11.4421382 10.5613628 -48.8634320 20.5740246
1.3049909 -0.1193600 0.1011271 0.068064 0.017978 0.006218 -0.0800557 -0.7306532 3.1246141 8.1528029 7.8695259 -50.0906917 21.0485112
1.2238851 -0.1389083 0.0970512 0.050596 0.035864 0.005248 0.0537321 -0.5114890 3.0504091 5.1867954 5.2858019 -50.6498757 21.5149900
1.1399577 -0.1546821 0.0980644 0.035209 0.051176 0.003787 0.1281599 -0.2554343 2.3274390 2.4901519 3.0385446 -51.5316112 21.9215927
1.7908760 0.1441076 0.5582942 0.285681 -0.138535 -0.001186 -4.1990821 -8.7355840 1.1519743 34.5512120 32.1348612 -5.7180896 18.2281474
1.8090578 0.1215428 0.4926561 0.272362 -0.144950 -0.002729 -3.9391917 -7.4999524 2.1411117 36.1656609 30.6102906 -11.9235063 17.5984844
1.8128365 0.0949231 0.4263647 0.254212 -0.146572 -0.004323 -3.4928379 -6.1917701 2.8774645 36.6356944 28.7499187 -18.2255753 17.3620909
1.8021768 0.0645623 0.3617376 0.231204 -0.142572 -0.005189 -2.8956520 -4.8560997 3.2855644 36.1127638 26.4363001 -24.5411355 17.1093592
1.7772756 0.0313927 0.3011646 0.205005 -0.133061 -0.005057 -2.3173574 -3.7374988 3.4791249 34.3776584 23.8194430 -30.5070884 17.2486617
1.7389577 -0.0032834 0.2467613 0.176689 -0.118070 -0.003929 -1.7820757 -2.8142861 3.4955663 31.7190431 20.8847381 -35.8964966 17.3750207
1.6886419 -0.0380375 0.2000743 0.148305 -0.098670 -0.002054 -1.3560956 -2.1409009 3.4958802 28.1899093 17.7985232 -40.4920243 17.8681376
1.6281159 -0.0715309 0.1619460 0.120809 -0.075948 0.000046 -0.9825944 -1.5915190 3.4076517 24.2281387 14.6308869 -44.2075816 18.2741598
1.5592582 -0.1026628 0.1325491 0.095526 -0.051542 0.001913 -0.6811232 -1.1742914 3.3286788 19.9714487 11.5334811 -47.0352353 18.9458264
1.4837984 -0.1306283 0.1115269 0.072561 -0.026700 0.003147 -0.4203510 -0.8217907 3.1620315 15.8020351 8.5252572 -49.0391224 19.4591297
1.4031311 -0.1548980 0.0981801 0.052410 -0.002863 0.003539 -0.2152631 -0.5532010 3.0354296 11.7531100 5.7537377 -50.3261084 20.1744053
1.3181258 -0.1751256 0.0916402 0.034574 0.019269 0.003077 -0.0477380 -0.3260973 2.8134599 8.1103198 3.1503692 -51.0669339 20.6434157
1.2287636 -0.1909372 0.0910393 0.019428 0.038884 0.001900 0.0791647 -0.1539111 2.6331339 4.7166977 0.8462669 -51.4470199 21.3406395
1.8733214 0.0982021 0.5525432 0.265208 -0.169306 -0.002251 -3.7163249 -5.8753589 0.9441562 41.4420032 29.1605759 -6.4713918 16.4513190
1.8885587 0.0701259 0.4811991 0.247066 -0.176273 -0.004963 -2.9693961 -4.2338015 1.4988258 43.0982018 27.2049074 -13.3286319 15.9246528
1.8870009 0.0382200 0.4100287 0.223585 -0.176587 -0.007034 -2.1321242 -2.7852504 1.6395419 43.3512177 24.8129745 -20.3917686 15.5963960
1.8688953 0.0032226 0.3419377 0.195858 -0.169844 -0.008027 -1.4649689 -1.7774989 1.5617318 42.0883470 22.0881815 -27.1985313 15.5811557
1.8350878 -0.0335516 0.2796403 0.165527 -0.156009 -0.007596 -1.0763203 -1.2281979 1.5304828 39.4399261 19.0005596 -33.4797337 15.8140882
1.7871561 -0.0705241 0.2252675 0.134761 -0.136083 -0.005956 -0.8792988 -0.9545354 1.6498195 35.6136173 15.7661362 -38.9156667 16.2929127
1.7271948 -0.1061566 0.1801156 0.105104 -0.111393 -0.003674 -0.7861368 -0.8203006 1.9630180 30.9985548 12.4121505 -43.3208952 16.9133890
1.6574588 -0.1391656 0.1446214 0.077986 -0.083901 -0.001374 -0.6667801 -0.6747419 2.2784166 25.9556992 9.1688665 -46.6480519 17.6635328
1.5800226 -0.1686155 0.1185240 0.053863 -0.055254 0.000388 -0.5209800 -0.5147833 2.5749215 20.8653070 6.0550758 -48.9570077 18.4371484
1.4965302 -0.1938935 0.1010990 0.033019 -0.027122 0.001284 -0.3375807 -0.3267680 2.6953628 15.9728825 3.2078342 -50.4091007 19.2092513
1.4080066 -0.2146014 0.0913974 0.015254 -0.000535 0.001211 -0.1618242 -0.1521854 2.7577390 11.4377846 0.5935384 -51.1755400 19.9739515
1.3146602 -0.2303630 0.0884301 0.000390 0.023458 0.000240 -0.0022191 0.0030408 2.7120180 7.3684888 -1.6607251 -51.4285910 20.6665126
1.9494005 0.0418690 0.5468728 0.235230 -0.202934 -0.003332 -1.1678414 -1.3668210 0.2774659 49.1042660 25.3050830 -7.2246353 14.5260982
1.9594013 0.0081024 0.4702497 0.211399 -0.208977 -0.006546 0.4072261 0.4206737 -0.1935266 50.6182852 22.7727935 -14.9240129 13.8900685
1.9503861 -0.0289020 0.3949204 0.182559 -0.206530 -0.008826 1.3635337 1.2564408 -0.9948191 50.1941968 19.8918901 -22.6039867 13.8241806
1.9230047 -0.0678587 0.3243669 0.150332 -0.195038 -0.009423 1.5495296 1.2812080 -1.5814096 47.9061998 16.6327877 -29.9008493 13.9274358
1.8788873 -0.1070670 0.2615163 0.117332 -0.175592 -0.008382 1.0798416 0.8010353 -1.4857145 43.9116647 13.2455139 -36.3485691 14.5406833
1.8204426 -0.1447899 0.2083327 0.085409 -0.149473 -0.006253 0.4234223 0.2788830 -0.7788200 38.7184476 9.7174020 -41.6352630 15.2206889
1.7504004 -0.1795582 0.1656905 0.056526 -0.119199 -0.003722 -0.1178103 -0.0667743 0.2933366 32.7955026 6.3400795 -45.6430888 16.2272973
1.6713405 -0.2103081 0.1335220 0.031219 -0.086763 -0.001575 -0.3542602 -0.1586039 1.2367441 26.7402475 3.1269415 -48.4422546 17.0962579
1.5853497 -0.2363666 0.1111183 0.009987 -0.054326 -0.000256 -0.3854958 -0.0995944 2.0255087 20.7948734 0.2403769 -50.1536677 18.1761787
1.4938338 -0.2573313 0.0974303 -0.007738 -0.023298 -0.000045 -0.2640254 0.0384279 2.4320087 15.3683765 -2.3292925 -51.0242356 18.9888783
1.3974270 -0.2728966 0.0913177 -0.021857 0.005161 -0.000856 -0.1032646 0.1898331 2.7011582 10.4260822 -4.5307779 -51.2685562 19.9561984
2.0158972 -0.0260070 0.5414561 0.193627 -0.236872 -0.003951 4.7933645 3.9584208 -1.0816320 57.1428720 20.2516019 -8.0588755 12.4892922
2.0182816 -0.0651753 0.4602476 0.163925 -0.240007 -0.007336 6.8158669 4.7783171 -3.1030397 58.0571360 17.1213403 -16.4864312 12.0887413
1.9996495 -0.1063751 0.3818654 0.130290 -0.232465 -0.009095 6.9970713 4.1439043 -4.9379031 56.5354397 13.6926610 -24.7840790 12.1547982
1.9613594 -0.1477936 0.3102086 0.095246 -0.214644 -0.008962 5.5688734 2.7295135 -5.5586999 52.7694743 10.1097818 -32.3659502 12.7159227
1.9059841 -0.1875050 0.2481755 0.061429 -0.188099 -0.007234 3.4143269 1.3146738 -4.6557674 47.1591096 6.4166444 -38.7747225 13.5939566
1.8367428 -0.2238572 0.1973332 0.030947 -0.155609 -0.004736 1.5314234 0.4041706 -2.8386414 40.4392358 2.9017848 -43.7310003 14.6991165
1.7568380 -0.2556737 0.1579988 0.004822 -0.119792 -0.002369 0.3226880 0.0338184 -0.8282235 33.2786380 -0.3825298 -47.2149005 15.8879653