# volRat = 0.650000
# viscRat = 5.000000
# alpha = 0.500000
# shRate = 3.182000
# tnum = 9100
# time = 9.168284
VARIABLES = X, Y, Z, U, V, W, F_B0, F_B1, F_B2, F_0, F_1, F_2, T
ZONE N=2562 E=5120 F=FEPOINT ET=TRIANGLE
1.5910921 0.2189901 0.6212299 0.306397 -0.085869 -0.000000 2.3186987 8.4975200 0.0000014 23.4191591 41.7849474 0.0000006 21.2782095
-1.6673967 0.7286206 0.6212299 0.308988 0.050582 -0.000000 -2.0371558 11.9885615 0.0000031 -22.4602605 50.6956469 0.0000024 18.7200104
1.6673965 -0.7286210 0.6212299 -0.308987 -0.050583 -0.000000 2.0371343 -11.9884485 0.0000031 22.4601103 -50.6952967 0.0000012 18.7190739
-1.5910920 -0.2189906 0.6212299 -0.306397 0.085869 -0.000000 -2.3186764 -8.4974413 0.0000014 -23.4192877 -41.7846931 0.0000005 21.2776613
0.9710745 -0.1335940 1.1283382 0.033545 0.068826 -0.001984 -1.3197156 1.4120088 13.7895532 -1.4914176 3.3808264 55.7281619 22.6497815
0.9710745 -0.1335940 0.1141216 0.033545 0.068826 0.001984 -1.3197368 1.4120561 -13.7898409 -1.4914402 3.3808698 -55.7284461 22.6497776
-0.9710746 0.1335937 1.1283382 -0.033545 -0.068829 -0.001984 1.3197351 -1.4120257 13.7897507 1.4913530 -3.3786083 55.7286309 22.6499389
-0.9710746 0.1335937 0.1141216 -0.033545 -0.068829 0.001984 1.3197276 -1.4120426 -13.7897399 1.4913445 -3.3786127 -55.7286295 22.6499373
-0.0981928 0.3635973 0.8424733 0.180417 -0.043335 0.008416 -10.7019745 -47.2792973 -28.3937865 -0.3138087 2.0712084 5.3737849 25.4820954
0.0981928 -0.3635972 0.8424731 -0.180244 0.044078 0.007992 9.9900634 44.1341183 -26.5046989 -0.3959824 -5.1915092 7.2164627 25.4744682
-0.0981929 0.3635973 0.3999865 0.180417 -0.043335 -0.008415 -10.7017271 -47.2781589 28.3930031 -0.3135522 2.0723252 -5.3745596 25.4821046
0.0981928 -0.3635972 0.3999867 -0.180244 0.044076 -0.007993 9.9913673 44.1398609 26.5082595 -0.3946703 -5.1857863 -7.2130564 25.4745036
1.6145702 0.2110407 0.6701908 0.306182 -0.087851 -0.000665 -3.5560148 -12.2763923 -1.0429808 23.2717389 35.7202693 4.0232701 21.1157695
1.6324976 0.1983505 0.7237297 0.300247 -0.091920 -0.001197 -3.1154023 -10.1065995 -1.9554755 24.5804307 35.4950703 9.1354015 20.6717638
1.6422007 0.1811622 0.7799334 0.290323 -0.093509 -0.001469 -2.9919712 -9.2259465 -2.8929627 25.1094876 34.4063852 14.3075329 20.4907379
1.6418696 0.1598030 0.8366151 0.276012 -0.091846 -0.001631 -2.7707502 -8.2385088 -3.6976549 25.2024759 32.8986918 19.6010848 20.1475470
1.6305265 0.1347703 0.8918701 0.258131 -0.086976 -0.002116 -2.4604108 -7.1785366 -4.3230165 24.5592442 31.0337987 24.8444831 20.1097529
1.6078500 0.1068309 0.9438586 0.236986 -0.078541 -0.003029 -2.0571196 -6.0148013 -4.6776316 23.3337146 28.8060282 29.8534860 19.9682580
1.5741216 0.0769670 0.9909751 0.213885 -0.066773 -0.004372 -1.6272853 -4.8939360 -4.7984240 21.4447634 26.3179056 34.4642775 20.1169532
1.5301287 0.0462734 1.0319858 0.189577 -0.052029 -0.005983 -1.1987229 -3.8349175 -4.6708096 19.1229076 23.6090900 38.5696223 20.1830954
1.4770217 0.0158333 1.0661179 0.165375 -0.035187 -0.007580 -0.8285049 -2.9552500 -4.4354520 16.3739032 20.7919396 42.0351767 20.5178474
1.4161559 -0.0133872 1.0930708 0.141762 -0.017086 -0.008919 -0.5153946 -2.2077324 -4.0742725 13.5077561 17.9177286 44.8743928 20.7081459
1.3489547 -0.0406095 1.1129585 0.119639 0.001270 -0.009622 -0.2835652 -1.6832049 -3.8335115 10.5232425 15.0408104 46.9910294 21.1498968
1.2768239 -0.0652698 1.1262199 0.098997 0.018886 -0.009626 -0.0981978 -1.2292729 -3.4912651 7.7129163 12.2889469 48.6232212 21.4004738
1.2011568 -0.0870109 1.1335211 0.080216 0.034921 -0.009219 0.0358104 -0.8465663 -3.0569119 5.0251916 9.7123396 49.9990966 21.8490686
1.1234146 -0.1056625 1.1356862 0.063049 0.048862 -0.008085 0.1607698 -0.7360215 -3.4905075 2.6883050 7.0903231 50.2595108 22.0882401
1.0458239 -0.1211403 1.1336529 0.047684 0.060174 -0.005664 0.4534210 -0.9033720 -5.9996682 0.6032177 4.6742490 49.6257862 22.5135197
1.7789254 -0.6986436 0.6898317 -0.291340 -0.094160 -0.002576 -1.7440001 5.3555836 -0.7584658 32.2664533 -43.2728999 7.4564000 16.9881758
1.7953780 -0.6772888 0.7607153 -0.277476 -0.103618 -0.004634 -1.5896391 4.2636302 -1.3124297 34.1861646 -41.3187041 15.1318085 16.5925544
1.7985640 -0.6475552 0.8317130 -0.257748 -0.108853 -0.006268 -1.1856767 2.8570165 -1.4403788 34.9338093 -38.3458336 22.9785104 16.2869659
1.7879051 -0.6100981 0.8998909 -0.232647 -0.108978 -0.006841 -0.8309499 1.8380344 -1.3636698 34.2070401 -34.4438695 30.2140409 16.2223980
1.7633594 -0.5663561 0.9624475 -0.203387 -0.103493 -0.006200 -0.5967767 1.2342590 -1.2826395 32.2638427 -29.9166119 36.5096174 16.3251504
1.7257145 -0.5182245 1.0171401 -0.171340 -0.092473 -0.004647 -0.4764393 0.9365014 -1.3357868 29.2717510 -25.1223413 41.6258805 16.6788890
1.6764034 -0.4677148 1.0625711 -0.138395 -0.076665 -0.002581 -0.4353408 0.8252311 -1.6160020 25.6008909 -20.3058041 45.4690758 17.1806220
1.6171956 -0.4166547 1.0982294 -0.105929 -0.057378 -0.000634 -0.3840279 0.7112032 -1.9521508 21.6105330 -15.7638255 48.1686043 17.8158017
1.5499014 -0.3665039 1.1243417 -0.075162 -0.036247 0.000722 -0.3143703 0.5752749 -2.3259155 17.6190168 -11.5670824 49.8956784 18.5246476
1.4761697 -0.3183017 1.1416462 -0.046772 -0.014807 0.001226 -0.2108901 0.3848642 -2.5488679 13.8074544 -7.8384460 50.9023244 19.2757735
1.3973911 -0.2727056 1.1511645 -0.021403 0.005487 0.000828 -0.1031808 0.1884913 -2.6972498 10.3655225 -4.5207146 51.3913301 19.9994463
1.3146734 -0.2300769 1.1540376 0.000844 0.023614 -0.000354 -0.0024234 0.0014058 -2.7003814 7.3108268 -1.6279976 51.5376604 20.7025786
1.2288148 -0.1905658 1.1514077 0.019855 0.038916 -0.001961 0.0810425 -0.1603385 -2.7063330 4.6690630 0.8760462 51.4546910 21.3726445
1.1400354 -0.1542391 1.1443576 0.035592 0.051076 -0.003723 0.1412041 -0.2846681 -2.5711687 2.4550673 3.0608958 51.3548350 21.9466648
1.8636829 -0.6636829 0.6962415 -0.271057 -0.133462 -0.002775 -0.6786557 1.3695675 -0.2377077 41.7231225 -40.8029296 8.4049947 15.3285131
1.8783364 -0.6350325 0.7729708 -0.252112 -0.144044 -0.005346 0.2333446 -0.4102777 0.1568563 43.7621118 -37.8237229 17.2110096 14.7375364
1.8764200 -0.5983508 0.8482011 -0.226906 -0.147942 -0.006652 0.8505789 -1.3301845 0.8497532 43.8041520 -33.9285615 25.5748307 14.6175486
1.8582158 -0.5547872 0.9186455 -0.197057 -0.144995 -0.006675 1.0477502 -1.4751342 1.4259193 42.0965340 -29.1862300 33.0815395 14.6137065
1.8246360 -0.5062649 0.9814380 -0.163645 -0.134774 -0.005513 0.8043149 -1.0245330 1.4419843 38.7581215 -24.1318643 39.2852049 15.0679533
1.7773644 -0.4549960 1.0345937 -0.129325 -0.118337 -0.003506 0.3687471 -0.4230917 0.8643621 34.4163690 -18.9754406 43.9838674 15.5784878
1.7185533 -0.4030513 1.0771917 -0.095217 -0.096931 -0.001508 -0.0360011 0.0364455 -0.1114245 29.4822410 -14.1435623 47.3014883 16.4498751
1.6504295 -0.3520889 1.1092641 -0.063093 -0.072660 -0.000031 -0.2601878 0.2195987 -1.0912506 24.4808829 -9.6978718 49.4166548 17.2393161
1.5749875 -0.3032620 1.1315174 -0.033529 -0.047346 0.000522 -0.3264612 0.1940995 -1.9448307 19.6587625 -5.7715968 50.6138695 18.2388555
1.4938214 -0.2572621 1.1450394 -0.007318 -0.022844 0.000091 -0.2639639 0.0380627 -2.4311811 15.3114907 -2.3179678 51.1740614 19.0415814
1.4080456 -0.2144244 1.1510583 0.015689 -0.000251 -0.001230 -0.1621096 -0.1533273 -2.7593109 11.3834431 0.6232736 51.2919802 20.0138985
1.3182043 -0.1748479 1.1507940 0.035004 0.019385 -0.003165 -0.0481381 -0.3283857 -2.8183798 8.0611992 3.1896684 51.1567108 20.6838244
1.2239903 -0.1385414 1.1453562 0.051004 0.035795 -0.005509 0.0519052 -0.5005305 -2.9704922 5.1400124 5.3529871 50.7980563 21.5465093
1.9427914 -0.6152253 0.7017410 -0.240828 -0.175911 -0.003009 3.2252960 -4.3945597 0.9569118 51.8961203 -36.3488064 9.4003878 13.4175647
1.9527392 -0.5791784 0.7832169 -0.215857 -0.185484 -0.004976 4.7439796 -5.5481249 2.7372817 53.3784254 -32.4481515 18.8420344 13.0088530
1.9434478 -0.5359035 0.8615458 -0.185302 -0.186363 -0.005699 5.1193493 -5.1820455 4.4395411 52.3323759 -27.6243675 27.6662697 12.9402328
1.9159142 -0.4872252 0.9330233 -0.150991 -0.178148 -0.004857 4.3141643 -3.7622776 5.1435371 49.0648805 -22.4131650 35.1422135 13.3137454
1.8720614 -0.4354783 0.9948561 -0.115264 -0.161804 -0.003040 2.8171146 -2.0683146 4.4568048 44.1405187 -17.0341930 41.0125947 14.0039319
1.8144849 -0.3829555 1.0455062 -0.079919 -0.138846 -0.001054 1.3551056 -0.7898752 2.8174054 38.2779194 -11.9678694 45.2264412 14.9538080
1.7459447 -0.3315137 1.0846542 -0.046685 -0.111658 0.000449 0.3143550 -0.1247043 0.8650843 32.1618573 -7.3289578 47.9809957 16.0108738
1.6689246 -0.2824263 1.1128935 -0.016424 -0.082573 0.000969 -0.2203448 0.0308548 -0.8206934 26.2179353 -3.2624812 49.5691025 17.1363136
1.5853743 -0.2364246 1.1313468 0.010348 -0.053725 0.000369 -0.3853149 -0.0992878 -2.0243454 20.7497574 0.2511867 50.3358069 18.2314543
1.4966068 -0.1938326 1.1413517 0.033425 -0.026711 -0.001231 -0.3378014 -0.3271789 -2.6954255 15.9209907 3.2383713 50.5526258 19.2555323
1.4032468 -0.1547233 1.1442480 0.052827 -0.002633 -0.003567 -0.2154200 -0.5539183 -3.0325110 11.7036168 5.7930995 50.4409973 20.2169300
1.3051320 -0.1190812 1.1412720 0.068479 0.018019 -0.006338 -0.0802849 -0.7306361 -3.1157184 8.1037402 7.9198618 50.1844033 21.0815724
2.0123433 -0.5521702 0.7064011 -0.198208 -0.218110 -0.002477 10.7053238 -9.6857766 2.8029344 61.5548197 -29.8048014 10.1286360 11.5057661
2.0147133 -0.5093065 0.7912808 -0.167269 -0.224427 -0.003635 12.1555676 -9.0901812 6.2723416 61.8507024 -25.0329999 20.0341517 11.1604203
1.9957827 -0.4607696 0.8711432 -0.132123 -0.219628 -0.003132 10.9340213 -6.6437825 8.5744374 59.1651612 -19.7956476 28.8637535 11.5229412
1.9574462 -0.4089414 0.9421186 -0.095364 -0.204630 -0.001483 7.9394851 -3.7255610 8.6421634 54.1306039 -14.3619917 36.1232615 12.1807011
1.9026533 -0.3562851 1.0017467 -0.059173 -0.180894 0.000552 4.5369319 -1.4435194 6.6078116 47.5621798 -9.2149861 41.5449857 13.3428633
1.8347524 -0.3048374 1.0490980 -0.025459 -0.151424 0.002119 1.9099328 -0.2605243 3.6818916 40.4008987 -4.4823451 45.2221010 14.5316056
1.7568491 -0.2559843 1.0844743 0.005013 -0.118865 0.002541 0.3241246 0.0333485 0.8319735 33.2830279 -0.3861226 47.4834307 15.9569425
1.6714163 -0.2104928 1.1089464 0.031504 -0.086021 0.001742 -0.3533703 -0.1576667 -1.2334056 26.7182325 3.1484103 48.6612448 17.1597771
1.5801490 -0.1686724 1.1239296 0.054215 -0.054706 -0.000265 -0.5208459 -0.5141165 -2.5728602 20.8269998 6.0934689 49.1281617 18.4896690
1.4839614 -0.1305610 1.1309024 0.072946 -0.026355 -0.003092 -0.4208390 -0.8224753 -3.1622294 15.7593692 8.5724163 49.1707215 19.5073098
1.3830225 -0.0960962 1.1312494 0.087918 -0.001692 -0.006373 -0.2614337 -1.0743205 -3.4580028 11.3975844 10.6141553 48.9539124 20.6126339
2.0674111 -0.4749328 0.7098566 -0.142243 -0.255220 -0.001388 20.7551674 -11.5057682 4.9642609 69.2488417 -21.3807985 10.5308308 9.8075097
2.0596800 -0.4268902 0.7964888 -0.106578 -0.255535 -0.001138 20.2094045 -8.4002435 9.6457282 67.8231086 -16.2277277 20.4763689 9.8913192
2.0294714 -0.3754650 0.8761195 -0.069130 -0.243271 0.000500 15.8116629 -4.4220442 11.5949183 63.2716956 -10.9325162 29.1019282 10.5831165
1.9797296 -0.3232253 0.9450927 -0.032631 -0.220278 0.002734 9.9425813 -1.3204381 10.2207505 56.5397875 -5.8313508 35.9183892 11.7807540
1.9142582 -0.2723429 1.0015270 0.001137 -0.189630 0.004407 4.8451006 0.1963673 6.7256982 48.6172828 -1.1354863 40.8470203 13.2257745
1.8368228 -0.2242926 1.0451495 0.031012 -0.154539 0.004909 1.5369526 0.4023457 2.8486783 40.5022005 2.9193137 44.0372341 14.7748637
1.7505426 -0.1798629 1.0767878 0.056719 -0.118310 0.003922 -0.1146032 -0.0647277 -0.2852662 32.8095734 6.3793491 45.8954404 16.2949255
1.6576476 -0.1393364 1.0978416 0.078277 -0.083214 0.001556 -0.6658445 -0.6725715 -2.2739138 25.9372555 9.2208456 46.8472830 17.7198463
1.5594793 -0.1027018 1.1098881 0.095870 -0.051063 -0.001789 -0.6815089 -1.1737534 -3.3273994 19.9385755 11.5885450 47.1881813 18.9959172
1.4566007 -0.0698314 1.1144618 0.109613 -0.022741 -0.005668 -0.4960222 -1.4938943 -3.7325058 14.8414518 13.5127065 47.1762737 20.1492498
2.1029628 -0.3861998 0.7116724 -0.074751 -0.281537 0.000194 29.2072001 -7.6760825 6.5749761 73.5871494 -11.9556958 10.5372839 8.6673160
2.0835184 -0.3356877 0.7981767 -0.037026 -0.273778 0.001966 24.8152902 -3.2262819 11.2794612 70.2924121 -6.9066185 20.2176920 9.1568838
2.0415952 -0.2844489 0.8758740 -0.000522 -0.253277 0.004473 16.8348739 0.1997157 11.8836308 64.0724403 -1.9878082 28.3959885 10.4000132
1.9810524 -0.2347273 0.9416557 0.032633 -0.223068 0.006585 9.0315678 1.5965132 9.0282616 56.0368590 2.5390048 34.6986618 11.8708248
1.9061499 -0.1880483 0.9943195 0.061360 -0.186900 0.007392 3.4302280 1.3128996 4.6764268 47.2975599 6.4703601 39.1000956 13.6748027
1.8206656 -0.1452012 1.0341590 0.085504 -0.148450 0.006469 0.4319446 0.2834981 0.7941638 38.7820471 9.7882131 41.9115698 15.2931563
1.7274587 -0.1064310 1.0623611 0.105319 -0.110564 0.003897 -0.7828841 -0.8150734 -1.9536266 31.0113153 12.4871370 43.5425305 16.9744167
1.6284058 -0.0716697 1.0805043 0.121105 -0.075341 0.000141 -0.9824210 -1.5888235 -3.4038509 24.2119102 14.7059088 44.3787073 18.3309396
1.5245218 -0.0407230 1.0902279 0.133203 -0.043940 -0.004319 -0.8059539 -2.0582454 -4.0512330 18.3954028 16.4649156 44.7423432 19.7057619
2.1152932 -0.2910080 0.7115513 -0.000705 -0.292330 0.001912 31.0161681 0.0085739 6.7487350 74.0766993 -2.5482599 10.2230982 8.4364006
2.0839589 -0.2412912 0.7960776 0.035486 -0.276138 0.004878 22.8104700 3.1272067 10.1345724 69.1095643 2.1000423 19.3940294 9.4578036
2.0312922 -0.1932521 0.8704617 0.067785 -0.248557 0.007633 13.2065776 3.8867758 9.2095226 61.7007302 6.4323813 26.9763188 11.0038479
1.9616245 -0.1484201 0.9322963 0.095057 -0.213345 0.009101 5.6024925 2.7322720 5.5902515 52.9897581 10.2149656 32.6798295 12.7984888
1.8792033 -0.1075645 0.9809880 0.117330 -0.174447 0.008595 1.0979460 0.8116601 1.5098061 44.0330464 13.3574826 36.6295390 14.6148105
1.7875057 -0.0708863 1.0172236 0.134908 -0.135124 0.006202 -0.8722177 -0.9444874 -1.6353129 35.6625044 15.8734672 39.1489379 16.3577691
1.6890101 -0.0382642 1.0423913 0.148546 -0.097924 0.002284 -1.3548347 -2.1349176 -3.4891865 28.1958899 17.8947029 40.6763175 17.9249017
1.5852546 -0.0094468 1.0581411 0.158552 -0.064329 -0.002503 -1.1824273 -2.7502766 -4.2874131 21.8044653 19.5053059 41.5494568 19.3097116
2.1033568 -0.1957258 0.7094950 0.072746 -0.286106 0.003313 24.8226192 6.3774371 5.3484585 71.0000662 6.2318234 9.6796438 9.1631498
2.0614291 -0.1497332 0.7905083 0.104170 -0.263156 0.006816 15.5186397 6.3152648 6.9015619 64.8433148 10.3005330 18.1806886 10.4518070
2.0000204 -0.1070539 0.8606419 0.130016 -0.231094 0.009210 7.0521013 4.1581661 4.9742720 56.8250154 13.8566633 25.0494519 12.2382576
1.9234205 -0.0684172 0.9181445 0.150258 -0.193798 0.009620 1.5791780 1.3013411 1.6105939 48.0818205 16.7945250 30.1598975 14.0048970
1.8355300 -0.0339808 0.9628619 0.165608 -0.154930 0.007843 -1.0641183 -1.2110712 -1.5118421 39.5290485 19.1449501 33.7069326 15.8802766
1.7394107 -0.0035815 0.9957182 0.176881 -0.117198 0.004187 -1.7793616 -2.8040607 -3.4865367 31.7503130 21.0105214 36.0816502 17.4358677
1.6371827 0.0230678 1.0182017 0.184744 -0.082560 -0.000646 -1.6427236 -3.6366474 -4.4781876 24.9272291 22.4620519 37.5957444 19.0030553
2.0690858 -0.1062774 0.7058208 0.138842 -0.265449 0.004022 14.3881313 7.5594820 3.1391219 65.0807324 14.0295129 8.9711573 10.6447415
2.0187550 -0.0658727 0.7822517 0.163623 -0.238594 0.007427 6.8872349 4.8092868 3.1335531 58.3856960 17.3407155 16.6713751 12.1711731
1.9509005 -0.0294929 0.8475890 0.182439 -0.205214 0.008996 1.4037330 1.2892784 1.0233365 50.4115262 20.1006147 22.8137542 13.8993128
1.8694305 0.0027497 0.9005687 0.195896 -0.168668 0.008258 -1.4478102 -1.7519140 -1.5419505 42.2111005 22.2721931 27.3996873 15.6481873
1.7778152 0.0310422 0.9413244 0.205158 -0.132076 0.005315 -2.3131379 -3.7221696 -3.4687855 34.4327100 23.9746512 30.6813818 17.3103425
1.6787599 0.0556782 0.9709378 0.210900 -0.097627 0.000872 -2.1522318 -4.6789212 -4.5027884 27.4889264 25.2857359 32.9250544 18.8129247
2.0164595 -0.0266900 0.7010258 0.193355 -0.235438 0.004005 4.8668967 4.0047017 1.0973830 57.4694451 20.5101520 8.1485920 12.5686819
1.9600042 0.0075073 0.7722481 0.211281 -0.207614 0.006674 0.4508672 0.4642975 0.2140694 50.8503998 23.0196674 15.0652432 13.9652862
1.8876224 0.0377274 0.8324733 0.223603 -0.175336 0.007228 -2.1126411 -2.7522413 -1.6228049 43.4953488 25.0296311 20.5498944 15.6642940
1.8027990 0.0641797 0.8807541 0.231332 -0.141494 0.005430 -2.8906497 -4.8360877 -3.2757789 36.1874977 26.6193312 24.6901727 17.1714737
1.7087112 0.0871271 0.9174591 0.235589 -0.108677 0.001766 -2.6848885 -5.8737145 -4.3279928 29.3648434 27.8475255 27.6891244 18.7330824
1.9500741 0.0412953 0.6956067 0.235142 -0.201547 0.003403 -1.1298465 -1.3183873 -0.2681577 49.3245965 25.5696413 7.2910625 14.5982449
1.8892526 0.0696357 0.7612910 0.247087 -0.174978 0.005104 -2.9518318 -4.1972884 -1.4881759 43.2467015 27.4422580 13.4314927 15.9898645
1.8135311 0.0945273 0.8161228 0.254330 -0.145426 0.004523 -3.4892236 -6.1701280 -2.8705869 36.7199093 28.9520552 18.3383844 17.4231765
1.7262382 0.1161937 0.8594078 0.257655 -0.115340 0.001883 -3.1679688 -7.1171990 -3.8781556 30.3913825 30.1053083 22.0733624 18.8328334
1.8740689 0.0977338 0.6899312 0.265256 -0.168001 0.002324 -3.7046566 -5.8412311 -0.9399533 41.5763288 29.4027866 6.5191881 16.5155055
1.8098097 0.1211508 0.7498223 0.272483 -0.143782 0.002865 -3.9370992 -7.4773188 -2.1368443 36.2492842 30.8238820 11.9970445 17.6600354
1.7311568 0.1418593 0.7987893 0.275823 -0.117631 0.001406 -3.5307443 -8.2900827 -3.1466676 30.6101596 31.9770978 16.3124965 19.0313608
1.7916668 0.1437339 0.6841735 0.285824 -0.137357 0.001259 -4.1998736 -8.7156039 -1.1503833 34.6261129 32.3471017 5.7511880 18.2859830
1.7238970 0.1634548 0.7377094 0.289567 -0.115914 0.000655 -3.7322574 -9.3060103 -2.1945350 29.9643158 33.3961820 10.5372691 19.3825104
1.7050872 0.1808381 0.6781160 0.298738 -0.110275 -0.000067 -3.5635681 -9.5921762 -1.0532096 28.7903308 34.7186428 5.1816240 19.7749057
1.6734868 0.1949929 0.6212299 0.303495 -0.101816 -0.000000 -3.9981978 -11.9341853 -0.0000000 26.4042371 34.3854168 0.0000001 20.3547191
1.7581438 0.1629048 0.6212299 0.293997 -0.126361 -0.000000 -3.9136769 -9.0712833 -0.0000000 32.2170233 33.5750174 0.0000000 18.8159520
1.8418443 0.1221086 0.6212299 0.277865 -0.155170 -0.000000 -4.1719901 -7.4433952 -0.0000000 38.6733471 31.0047658 0.0000003 17.3169951
1.9212432 0.0713026 0.6212299 0.253064 -0.187854 -0.000000 -2.6427685 -3.5478016 -0.0000000 46.1402794 27.7089697 0.0000003 15.3555726
1.9931664 0.0092102 0.6212299 0.217323 -0.222423 -0.000000 1.7560599 1.7106242 0.0000000 54.2783509 23.2374228 0.0000005 13.4102186
2.0536820 -0.0648178 0.6212299 0.169072 -0.255567 -0.000000 10.2370133 6.7564580 0.0000002 62.4764506 17.4664779 0.0000006 11.2954046
2.0981689 -0.1500339 0.6212299 0.108075 -0.282175 -0.000000 21.4628294 8.2124358 0.0000003 69.5469667 10.2624483 0.0000010 9.5911834
2.1220225 -0.2435421 0.6212299 0.036956 -0.296500 -0.000000 31.1495011 3.9040680 0.0000005 74.2841598 1.8852865 0.0000006 8.3269675
2.1220028 -0.3401602 0.6212299 -0.038494 -0.294348 -0.000000 33.6639143 -4.3406406 0.0000006 75.7183391 -7.3091712 0.0000010 8.1589114
2.0975988 -0.4333895 0.6212299 -0.110807 -0.275191 -0.000000 27.6608344 -11.0476991 0.0000005 73.3408248 -16.8778362 0.0000007 8.8102051
2.0513961 -0.5172207 0.6212299 -0.173466 -0.242289 -0.000000 16.9694799 -12.0586528 0.0000004 67.1351493 -26.0302563 0.0000010 10.3799543
1.9881402 -0.5876800 0.6212299 -0.223032 -0.201439 -0.000000 7.2378207 -7.9508410 0.0000002 58.1163588 -33.6633270 0.0000007 12.2034174
1.9132405 -0.6432458 0.6212299 -0.259390 -0.158356 -0.000000 1.1381661 -1.8475875 0.0000000 47.9052165 -39.1087333 0.0000010 14.2366263
1.8316969 -0.6843289 0.6212299 -0.283950 -0.117106 -0.000000 -1.3658546 3.2762540 -0.0000001 37.9424668 -42.4818096 0.0000004 15.9334283
1.7483404 -0.7123662 0.6212299 -0.300008 -0.079327 -0.000000 -1.9842301 7.3818241 -0.0000001 29.1542619 -44.9023766 0.0000004 17.6481978
1.6901308 -0.7223827 0.5616806 -0.303711 -0.059169 0.001602 -2.0823465 10.5555527 1.1417425 23.6111246 -43.8906125 -5.6971762 18.5035565
1.7063280 -0.7075901 0.4971640 -0.294402 -0.066746 0.003245 -1.6999654 7.4694703 1.8565091 25.5575642 -43.2770894 -12.8767202 18.0518789
1.7130201 -0.6843597 0.4306032 -0.279267 -0.071796 0.004812 -1.5429495 6.0683932 2.4721213 26.3716773 -41.1518337 -19.9732180 17.8710685
1.7083159 -0.6531441 0.3652072 -0.259128 -0.073614 0.005564 -1.3087851 4.7457543 2.8144272 26.4387803 -38.1276217 -26.8616632 17.6001229
1.6913988 -0.6149086 0.3036709 -0.234013 -0.071186 0.005381 -1.0607605 3.6529028 2.9767350 25.4081967 -34.3365647 -33.1066384 17.6660496
1.6623213 -0.5711285 0.2482999 -0.205608 -0.064299 0.004189 -0.8113877 2.7385986 2.9776458 23.5446606 -30.0629461 -38.4205954 17.7139757
1.6218395 -0.5235557 0.2007643 -0.174862 -0.053129 0.002364 -0.6012696 2.0637257 2.9575020 20.9617676 -25.6017448 -42.7078689 18.0780058
1.5711868 -0.4739660 0.1619972 -0.143636 -0.038475 0.000307 -0.4197296 1.5391313 2.9107933 18.0094493 -21.1652387 -45.9417583 18.4058149
1.5118289 -0.4239455 0.1322253 -0.112783 -0.021440 -0.001464 -0.2703156 1.1479161 2.9078330 14.8053964 -16.9649102 -48.2422935 19.0187140
1.4452604 -0.3747685 0.1111042 -0.083664 -0.003437 -0.002601 -0.1387511 0.8165643 2.8628302 11.7062093 -13.0668345 -49.7584448 19.4825986
1.3728794 -0.3273648 0.0979009 -0.056663 0.014271 -0.002938 -0.0290186 0.5552333 2.8685475 8.7322920 -9.5354307 -50.6740250 20.1874615
1.2959483 -0.2823573 0.0916528 -0.032469 0.030574 -0.002428 0.0616815 0.3176365 2.7506752 6.0711654 -6.4022175 -51.2155642 20.6858476
1.2156567 -0.2401438 0.0912915 -0.011172 0.044588 -0.001047 0.1338185 0.1303926 2.7127280 3.7123800 -3.5987708 -51.4807833 21.3640263
1.1332561 -0.2009848 0.0956981 0.006940 0.055794 0.000483 0.1893935 -0.0277226 2.6772486 1.8015773 -1.1541786 -51.2521031 21.7730741
1.0508457 -0.1653219 0.1036278 0.022110 0.063909 0.001783 0.3847573 -0.2765773 4.4005996 0.0535766 0.9849654 -51.3782527 22.4102434
1.7050872 0.1808381 0.5643438 0.298738 -0.110275 0.000067 -3.5635680 -9.5921760 1.0532095 28.7903303 34.7186432 -5.1816238 19.7749056
1.7238970 0.1634548 0.5047504 0.289567 -0.115914 -0.000655 -3.7322573 -9.3060099 2.1945348 29.9643163 33.3961825 -10.5372684 19.3825106
1.7311568 0.1418593 0.4436705 0.275823 -0.117631 -0.001407 -3.5307448 -8.2900837 3.1466680 30.6101592 31.9770968 -16.3124962 19.0313607
1.7262382 0.1161937 0.3830520 0.257655 -0.115340 -0.001883 -3.1679687 -7.1171986 3.8781553 30.3913837 30.1053088 -22.0733618 18.8328337
1.7087112 0.0871271 0.3250007 0.235589 -0.108677 -0.001766 -2.6848882 -5.8737138 4.3279923 29.3648444 27.8475260 -27.6891251 18.7330821
1.6787599 0.0556782 0.2715220 0.210900 -0.097627 -0.000872 -2.1522317 -4.6789210 4.5027882 27.4889282 25.2857362 -32.9250541 18.8129251
1.6371827 0.0230678 0.2242581 0.184744 -0.082560 0.000646 -1.6427234 -3.6366466 4.4781867 24.9272304 22.4620519 -37.5957460 19.0030552
1.5852546 -0.0094468 0.1843187 0.158552 -0.064329 0.002503 -1.1824273 -2.7502764 4.2874130 21.8044675 19.5053059 -41.5494567 19.3097121
1.5245218 -0.0407230 0.1522319 0.133203 -0.043940 0.004319 -0.8059539 -2.0582453 4.0512328 18.3954036 16.4649141 -44.7423444 19.7057620
1.4566007 -0.0698314 0.1279980 0.109613 -0.022741 0.005668 -0.4960221 -1.4938940 3.7325054 14.8414539 13.5127063 -47.1762742 20.1492507
1.3830226 -0.0960962 0.1112103 0.087918 -0.001692 0.006372 -0.2614337 -1.0743206 3.4580031 11.3975851 10.6141528 -48.9539133 20.6126341
1.3051320 -0.1190812 0.1011878 0.068479 0.018019 0.006338 -0.0802849 -0.7306359 3.1157174 8.1037421 7.9198612 -50.1844046 21.0815740
1.2239903 -0.1385415 0.0971036 0.051004 0.035795 0.005509 0.0519051 -0.5005301 2.9704900 5.1400120 5.3529829 -50.7980598 21.5465104
1.1400354 -0.1542391 0.0981021 0.035592 0.051076 0.003723 0.1412047 -0.2846693 2.5711802 2.4550702 3.0608912 -51.3548248 21.9466662
1.7916668 0.1437339 0.5582862 0.285824 -0.137357 -0.001259 -4.1998734 -8.7156033 1.1503832 34.6261137 32.3471020 -5.7511879 18.2859830
1.8098097 0.1211508 0.4926375 0.272483 -0.143782 -0.002865 -3.9370995 -7.4773191 2.1368444 36.2492841 30.8238814 -11.9970443 17.6600352
1.8135311 0.0945273 0.4263370 0.254330 -0.145426 -0.004523 -3.4892236 -6.1701279 2.8705868 36.7199099 28.9520552 -18.3383841 17.4231765
1.8027990 0.0641797 0.3617057 0.231332 -0.141494 -0.005430 -2.8906496 -4.8360875 3.2757788 36.1874983 26.6193310 -24.6901727 17.1714733
1.7778152 0.0310422 0.3011354 0.205158 -0.132076 -0.005315 -2.3131373 -3.7221684 3.4687844 34.4327114 23.9746522 -30.6813826 17.3103424
1.7394107 -0.0035815 0.2467415 0.176881 -0.117198 -0.004187 -1.7793614 -2.8040602 3.4865361 31.7503138 21.0105211 -36.0816508 17.4358668
1.6890101 -0.0382642 0.2000685 0.148546 -0.097924 -0.002284 -1.3548340 -2.1349164 3.4891846 28.1958912 17.8947039 -40.6763193 17.9249016
1.6284059 -0.0716697 0.1619555 0.121105 -0.075341 -0.000141 -0.9824207 -1.5888230 3.4038499 24.2119105 14.7059083 -44.3787086 18.3309384
1.5594793 -0.1027018 0.1325716 0.095870 -0.051063 0.001789 -0.6815089 -1.1737532 3.3273991 19.9385757 11.5885454 -47.1881814 18.9959168
1.4839614 -0.1305610 0.1115574 0.072946 -0.026355 0.003092 -0.4208390 -0.8224752 3.1622292 15.7593683 8.5724157 -49.1707217 19.5073084
1.4032468 -0.1547233 0.0982118 0.052827 -0.002633 0.003567 -0.2154200 -0.5539183 3.0325111 11.7036163 5.7931009 -50.4409969 20.2169297
1.3182043 -0.1748479 0.0916658 0.035004 0.019385 0.003165 -0.0481381 -0.3283858 2.8183806 8.0611985 3.1896691 -51.1567096 20.6838221
1.2288148 -0.1905658 0.0910521 0.019855 0.038916 0.001961 0.0810426 -0.1603386 2.7063356 4.6690628 0.8760503 -51.4546884 21.3726440
1.8740689 0.0977338 0.5525286 0.265256 -0.168001 -0.002324 -3.7046568 -5.8412315 0.9399533 41.5763283 29.4027863 -6.5191875 16.5155054
1.8892526 0.0696357 0.4811687 0.247087 -0.174978 -0.005104 -2.9518327 -4.1972897 1.4881763 43.2467010 27.4422565 -13.4314911 15.9898646
1.8876224 0.0377274 0.4099865 0.223603 -0.175336 -0.007228 -2.1126412 -2.7522414 1.6228049 43.4953493 25.0296309 -20.5498937 15.6642939
1.8694306 0.0027497 0.3418911 0.195896 -0.168669 -0.008258 -1.4478098 -1.7519135 1.5419500 42.2111023 22.2721934 -27.3996863 15.6481873
1.8355300 -0.0339809 0.2795979 0.165608 -0.154930 -0.007843 -1.0641179 -1.2110708 1.5118415 39.5290500 19.1449500 -33.7069327 15.8802765
1.7875058 -0.0708863 0.2252362 0.134908 -0.135124 -0.006202 -0.8722171 -0.9444867 1.6353118 35.6625070 15.8734675 -39.1489382 16.3577693
1.7274587 -0.1064310 0.1800987 0.105319 -0.110564 -0.003897 -0.7828840 -0.8150732 1.9536263 31.0113168 12.4871362 -43.5425308 16.9744168
1.6576476 -0.1393364 0.1446182 0.078277 -0.083214 -0.001556 -0.6658448 -0.6725717 2.2739148 25.9372572 9.2208445 -46.8472818 17.7198469
1.5801490 -0.1686724 0.1185302 0.054215 -0.054706 0.000265 -0.5208459 -0.5141163 2.5728598 20.8270007 6.0934673 -49.1281627 18.4896696
1.4966068 -0.1938326 0.1011080 0.033425 -0.026711 0.001231 -0.3378013 -0.3271788 2.6954249 15.9209930 3.2383701 -50.5526266 19.2555332
1.4080456 -0.2144244 0.0914015 0.015689 -0.000251 0.001230 -0.1621095 -0.1533273 2.7593107 11.3834430 0.6232705 -51.2919810 20.0138998
1.3146734 -0.2300769 0.0884222 0.000844 0.023614 0.000354 -0.0024234 0.0014058 2.7003809 7.3108284 -1.6280010 -51.5376610 20.7025803
1.9500741 0.0412953 0.5468531 0.235142 -0.201547 -0.003403 -1.1298453 -1.3183860 0.2681574 49.3245981 25.5696421 -7.2910622 14.5982448
1.9600042 0.0075073 0.4702117 0.211281 -0.207614 -0.006674 0.4508668 0.4642970 -0.2140692 50.8503997 23.0196666 -15.0652418 13.9652859
1.9509005 -0.0294929 0.3948708 0.182439 -0.205214 -0.008996 1.4037330 1.2892784 -1.0233365 50.4115265 20.1006141 -22.8137533 13.8993126
1.9234206 -0.0684172 0.3243153 0.150258 -0.193798 -0.009620 1.5791779 1.3013409 -1.6105937 48.0818209 16.7945242 -30.1598963 14.0048965
1.8792033 -0.1075645 0.2614718 0.117330 -0.174447 -0.008595 1.0979466 0.8116605 -1.5098068 44.0330474 13.3574826 -36.6295389 14.6148101
1.8206656 -0.1452012 0.2083007 0.085504 -0.148450 -0.006469 0.4319458 0.2834988 -0.7941659 38.7820485 9.7882131 -41.9115714 15.2931554
1.7505426 -0.1798630 0.1656719 0.056719 -0.118310 -0.003922 -0.1146033 -0.0647277 0.2852664 32.8095737 6.3793488 -45.8954399 16.2949251
1.6714163 -0.2104928 0.1335133 0.031504 -0.086021 -0.001742 -0.3533702 -0.1576666 1.2334051 26.7182325 3.1484102 -48.6612451 17.1597758
1.5853744 -0.2364246 0.1111130 0.010348 -0.053725 -0.000369 -0.3853151 -0.0992879 2.0243464 20.7497569 0.2511873 -50.3358059 18.2314537
1.4938214 -0.2572621 0.0974204 -0.007318 -0.022844 -0.000091 -0.2639639 0.0380628 2.4311811 15.3114900 -2.3179669 -51.1740613 19.0415798
1.3973911 -0.2727056 0.0912953 -0.021403 0.005487 -0.000828 -0.1031808 0.1884914 2.6972504 10.3655225 -4.5207119 -51.3913299 19.9994450
2.0164595 -0.0266900 0.5414340 0.193355 -0.235438 -0.004005 4.8668963 4.0047013 -1.0973828 57.4694443 20.5101516 -8.1485907 12.5686818
2.0187550 -0.0658727 0.4602081 0.163623 -0.238594 -0.007427 6.8872357 4.8092872 -3.1335532 58.3856971 17.3407158 -16.6713735 12.1711731
2.0000204 -0.1070539 0.3818179 0.130016 -0.231094 -0.009210 7.0521030 4.1581670 -4.9742729 56.8250175 13.8566638 -25.0494514 12.2382575
1.9616245 -0.1484201 0.3101635 0.095057 -0.213345 -0.009101 5.6024934 2.7322723 -5.5902521 52.9897602 10.2149655 -32.6798284 12.7984889
1.9061499 -0.1880483 0.2481403 0.061360 -0.186900 -0.007392 3.4302282 1.3128995 -4.6764269 47.2975611 6.4703594 -39.1000949 13.6748029
1.8368228 -0.2242926 0.1973103 0.031012 -0.154539 -0.004909 1.5369529 0.4023457 -2.8486787 40.5022026 2.9193129 -44.0372336 14.7748640
1.7568492 -0.2559843 0.1579855 0.005013 -0.118865 -0.002541 0.3241245 0.0333484 -0.8319733 33.2830288 -0.3861241 -47.4834304 15.9569432