# volRat = 0.650000
# viscRat = 5.000000
# alpha = 0.500000
# shRate = 3.182000
# tnum = 9600
# time = 9.701614
VARIABLES = X, Y, Z, U, V, W, F_B0, F_B1, F_B2, F_0, F_1, F_2, T
ZONE N=2562 E=5120 F=FEPOINT ET=TRIANGLE
1.5897845 0.2193298 0.6212299 0.306204 -0.086334 0.000000 1.9664441 7.2320571 0.0000012 23.0490312 40.3897455 0.0000005 21.2401724
-1.6686612 0.7283971 0.6212299 0.309278 0.050888 -0.000000 -1.9449269 11.3474257 0.0000029 -22.5223949 49.8108937 0.0000024 18.6272712
1.6686610 -0.7283975 0.6212299 -0.309279 -0.050888 -0.000000 1.9449234 -11.3474187 0.0000029 22.5225377 -49.8110979 0.0000025 18.6281283
-1.5897844 -0.2193303 0.6212299 -0.306204 0.086334 0.000000 -1.9664507 -7.2320838 0.0000012 -23.0489219 -40.3899268 0.0000010 21.2406728
0.9709578 -0.1344487 1.1284048 0.033147 0.069036 -0.002662 -1.3692913 1.4340454 14.2665110 -1.5139309 3.3202072 56.1249899 22.6244696
0.9709578 -0.1344487 0.1140550 0.033147 0.069036 0.002662 -1.3692949 1.4340745 -14.2666171 -1.5139372 3.3202274 -56.1251000 22.6244693
-0.9709578 0.1344484 1.1284048 -0.033148 -0.069033 -0.002661 1.3692026 -1.4339493 14.2655824 1.5139179 -3.3222560 56.1238354 22.6243208
-0.9709578 0.1344484 0.1140550 -0.033148 -0.069033 0.002661 1.3692071 -1.4339795 -14.2656982 1.5139247 -3.3222779 -56.1239547 22.6243204
-0.0973477 0.3634850 0.8423870 0.180408 -0.044506 0.008075 -12.2990820 -54.3948787 -32.6491161 -1.9400166 -5.1126160 0.9758542 25.4661588
0.0973475 -0.3634858 0.8423874 -0.180554 0.043886 0.008427 12.6374767 55.8914998 -33.5472144 2.2734221 6.5721271 0.1287748 25.4732343
-0.0973477 0.3634850 0.4000727 0.180408 -0.044506 -0.008075 -12.2990791 -54.3948135 32.6489617 -1.9400109 -5.1125399 -0.9759919 25.4661592
0.0973475 -0.3634858 0.4000724 -0.180554 0.043886 -0.008427 12.6374369 55.8913009 33.5472388 2.2733835 6.5719369 -0.1287745 25.4732337
1.6132674 0.2114024 0.6701991 0.305935 -0.088539 -0.000728 -3.4298507 -11.8831539 -1.0091212 23.3534882 35.9849867 4.0404184 21.0794490
1.6312221 0.1987251 0.7237421 0.300043 -0.092516 -0.001294 -3.1055211 -10.1104731 -1.9553715 24.5411219 35.3611066 9.1041373 20.6335996
1.6409774 0.1815373 0.7799483 0.290150 -0.094014 -0.001595 -2.9905532 -9.2540074 -2.9002712 25.0639893 34.2510721 14.2496482 20.4521131
1.6407221 0.1601626 0.8366339 0.275817 -0.092411 -0.001833 -2.7597228 -8.2337470 -3.6935424 25.1685724 32.7813041 19.5381181 20.1072845
1.6294747 0.1350953 0.8918974 0.257931 -0.087473 -0.002327 -2.4550793 -7.1863300 -4.3255835 24.5295010 30.9131323 24.7586555 20.0703618
1.6069086 0.1070997 0.9439009 0.236766 -0.078969 -0.003243 -2.0518979 -6.0178149 -4.6782244 23.3153843 28.6994201 29.7606124 19.9262177
1.5732983 0.0771564 0.9910385 0.213631 -0.067124 -0.004565 -1.6230695 -4.8948288 -4.7985070 21.4394431 26.2250476 34.3656938 20.0770430
1.5294243 0.0463611 1.0320742 0.189280 -0.052289 -0.006141 -1.1956103 -3.8344076 -4.6709163 19.1284014 23.5242219 38.4743524 20.1423453
1.4764312 0.0158002 1.0662316 0.165024 -0.035360 -0.007679 -0.8257166 -2.9516411 -4.4327713 16.3929492 20.7194353 41.9455783 20.4790330
1.4156701 -0.0135548 1.0932058 0.141368 -0.017150 -0.008934 -0.5149272 -2.2100120 -4.0836200 13.5303771 17.8395268 44.7845703 20.6693990
1.3485619 -0.0409187 1.1131073 0.119195 0.001277 -0.009580 -0.2815174 -1.6748842 -3.8227434 10.5545987 14.9796515 46.9279936 21.1164751
1.2765114 -0.0657200 1.1263724 0.098513 0.018957 -0.009586 -0.0962741 -1.2132277 -3.4573185 7.7460375 12.2253803 48.5954755 21.3646930
1.2009119 -0.0875933 1.1336663 0.079710 0.035073 -0.009028 0.0363002 -0.8354019 -3.0320307 5.0588271 9.6499896 49.9699425 21.8204801
1.1232249 -0.1063608 1.1358134 0.062523 0.049142 -0.007591 0.1727952 -0.7807601 -3.7310816 2.7291554 6.9598166 49.9749203 22.0593389
1.0456773 -0.1219308 1.1337533 0.047157 0.060463 -0.005236 0.4674800 -0.9172522 -6.1642386 0.6496451 4.5782505 49.4309727 22.4894481
1.7801817 -0.6982287 0.6898487 -0.291317 -0.095493 -0.002590 -1.7252817 5.2647511 -0.7466900 32.4146884 -43.0137157 7.4239273 16.8873215
1.7965791 -0.6768297 0.7607506 -0.277423 -0.104985 -0.004664 -1.5831394 4.2209414 -1.3014176 34.3025139 -41.0012585 15.0458965 16.4900116
1.7996752 -0.6470702 0.8317613 -0.257685 -0.110202 -0.006318 -1.1737479 2.8122750 -1.4203364 35.0380473 -38.0483001 22.8495126 16.1856919
1.7888963 -0.6096119 0.8999420 -0.232607 -0.110261 -0.006905 -0.8182081 1.8001141 -1.3380308 34.3013196 -34.1829024 30.0469410 16.1271351
1.7642093 -0.5658998 0.9624889 -0.203401 -0.104674 -0.006287 -0.5870711 1.2080164 -1.2577647 32.3513093 -29.7010555 36.3186304 16.2361398
1.7264126 -0.5178322 1.0171616 -0.171430 -0.093522 -0.004753 -0.4709383 0.9213230 -1.3165912 29.3541473 -24.9592435 41.4240920 16.5989877
1.6769494 -0.4674199 1.0625679 -0.138576 -0.077574 -0.002699 -0.4332779 0.8178608 -1.6042769 25.6798262 -20.1915471 45.2731308 17.1096957
1.6175976 -0.4164856 1.0982032 -0.106205 -0.058135 -0.000745 -0.3837589 0.7082646 -1.9465569 21.6858715 -15.6955536 47.9871680 17.7547139
1.5501727 -0.3664813 1.1243001 -0.075526 -0.036855 0.000640 -0.3147242 0.5747314 -2.3245608 17.6890106 -11.5345746 49.7363059 18.4701913
1.4763264 -0.3184371 1.1416009 -0.047211 -0.015256 0.001191 -0.2110197 0.3854095 -2.5479751 13.8716334 -7.8381709 50.7668532 19.2307341
1.3974505 -0.2730010 1.1511288 -0.021899 0.005190 0.000859 -0.1032437 0.1904346 -2.7014541 10.4218202 -4.5411251 51.2750530 19.9589973
1.3146531 -0.2305252 1.1540242 0.000308 0.023481 -0.000236 -0.0020969 0.0039634 -2.7128508 7.3616838 -1.6727122 51.4337012 20.6680163
1.2287327 -0.1911516 1.1514269 0.019308 0.038912 -0.001886 0.0794830 -0.1529670 -2.6376042 4.7093059 0.8251386 51.4481292 21.3427962
1.1399101 -0.1549403 1.1444162 0.035057 0.051196 -0.003762 0.1285635 -0.2545212 -2.3310956 2.4815723 3.0163562 51.5335666 21.9216466
1.8648935 -0.6630800 0.6962663 -0.270822 -0.135042 -0.002776 -0.6472572 1.2987757 -0.2259016 41.8011630 -40.4243787 8.3480368 15.2148796
1.8794649 -0.6343758 0.7730186 -0.251826 -0.145635 -0.005349 0.2750359 -0.4808982 0.1842963 43.8160877 -37.4542606 17.0919428 14.6223361
1.8774301 -0.5976697 0.8482623 -0.226623 -0.149475 -0.006658 0.8918718 -1.3871712 0.8884937 43.8433841 -33.5933565 25.3963285 14.5089498
1.8590799 -0.5541174 0.9187061 -0.196823 -0.146412 -0.006701 1.0811300 -1.5139986 1.4676666 42.1294396 -28.9052187 32.8599375 14.5094462
1.8253391 -0.5056467 0.9814844 -0.163505 -0.136037 -0.005570 0.8251123 -1.0455305 1.4760231 38.7941450 -23.9158131 39.0407397 14.9767819
1.7779044 -0.4544693 1.0346174 -0.129300 -0.119432 -0.003600 0.3792630 -0.4329548 0.8873361 34.4592361 -18.8224209 43.7398954 15.4950588
1.7189385 -0.4026512 1.0771917 -0.095319 -0.097854 -0.001627 -0.0324365 0.0326802 -0.1002361 29.5324509 -14.0477861 47.0741468 16.3793843
1.6506748 -0.3518420 1.1092465 -0.063313 -0.073415 -0.000152 -0.2594831 0.2180893 -1.0870285 24.5347687 -9.6472906 49.2162591 17.1763640
1.5751111 -0.3031850 1.1314936 -0.033855 -0.047932 0.000429 -0.3266434 0.1937110 -1.9446476 19.7136312 -5.7580429 50.4446450 18.1871869
1.4938423 -0.2573615 1.1450232 -0.007730 -0.023259 0.000049 -0.2640161 0.0385793 -2.4320368 15.3639021 -2.3321109 51.0343863 18.9932510
1.4079831 -0.2146972 1.1510638 0.015216 -0.000497 -0.001208 -0.1617018 -0.1516053 -2.7575609 11.4306932 0.5867608 51.1838401 19.9759969
1.3180777 -0.1752829 1.1508332 0.034489 0.019305 -0.003078 -0.0475040 -0.3247995 -2.8106330 8.1032260 3.1367106 51.0775804 20.6466851
1.2238201 -0.1391201 1.1454375 0.050473 0.035889 -0.005258 0.0537974 -0.5082484 -3.0396912 5.1782774 5.2711026 50.6668952 21.5161767
1.9439004 -0.6144116 0.7017700 -0.240317 -0.177709 -0.002995 3.3074902 -4.4810149 0.9786979 51.8794678 -35.9182149 9.3230664 13.2942155
1.9537339 -0.5783105 0.7832685 -0.215300 -0.187250 -0.004942 4.8306124 -5.6168474 2.7808185 53.3301205 -32.0449311 18.6803867 12.8873287
1.9442942 -0.5350237 0.8616060 -0.184778 -0.188012 -0.005664 5.1916652 -5.2240421 4.4932061 52.2740740 -27.2796220 27.4328883 12.8261590
1.9165921 -0.4863810 0.9330762 -0.150569 -0.179626 -0.004847 4.3620087 -3.7804398 5.1916409 49.0171338 -22.1447696 34.8632105 13.2100890
1.8725664 -0.4347176 0.9948897 -0.114987 -0.163091 -0.003080 2.8416898 -2.0725964 4.4892635 44.1147446 -16.8434957 40.7210410 13.9110887
1.8148254 -0.3823206 1.0455165 -0.079805 -0.139935 -0.001147 1.3643983 -0.7894826 2.8335386 38.2771018 -11.8473314 44.9481039 14.8742038
1.7461376 -0.3310374 1.0846458 -0.046730 -0.112563 0.000319 0.3162102 -0.1243164 0.8695066 32.1816263 -7.2626574 47.7333611 15.9414257
1.6689907 -0.2821303 1.1128775 -0.016613 -0.083292 0.000835 -0.2205367 0.0303078 -0.8210965 26.2526135 -3.2395400 49.3597772 17.0769675
1.5853350 -0.2363193 1.1313376 0.010044 -0.054268 0.000264 -0.3855969 -0.0998315 -2.0261563 20.7904128 0.2450770 50.1656690 18.1804630
1.4964831 -0.1939186 1.1413646 0.033025 -0.027068 -0.001279 -0.3374908 -0.3266287 -2.6956550 15.9651181 3.2079025 50.4193395 19.2122292
1.4030597 -0.1549926 1.1442965 0.052364 -0.002813 -0.003536 -0.2150578 -0.5525522 -3.0356066 11.7451346 5.7459427 50.3354157 20.1778213
1.3049035 -0.1195183 1.1413662 0.067977 0.018021 -0.006209 -0.0798637 -0.7302270 -3.1278222 8.1426492 7.8561048 50.0965697 21.0501206
2.0132806 -0.5511385 0.7064288 -0.197387 -0.220037 -0.002438 10.8412172 -9.7468268 2.8330727 61.3984184 -29.3608199 10.0257076 11.3772160
2.0155026 -0.5082344 0.7913246 -0.166437 -0.226256 -0.003565 12.2758250 -9.1170507 6.3241381 61.6668314 -24.6460302 19.8278470 11.0355537
1.9963987 -0.4597128 0.8711864 -0.131384 -0.221285 -0.003064 11.0152576 -6.6414187 8.6265819 58.9926521 -19.4925051 28.5789269 11.4096451
1.9578817 -0.4079567 0.9421465 -0.094794 -0.206077 -0.001461 7.9811181 -3.7105677 8.6782593 53.9958404 -14.1492270 35.7998231 12.0785697
1.9029171 -0.3554231 1.0017527 -0.058809 -0.182131 0.000506 4.5506651 -1.4297754 6.6226635 47.4767969 -9.0822934 41.2219954 13.2557607
1.8348637 -0.3041375 1.0490849 -0.025299 -0.152460 0.002004 1.9111997 -0.2538017 3.6825986 40.3602164 -4.4128898 44.9272101 14.4539606
1.7568314 -0.2554728 1.0844526 0.004990 -0.119713 0.002386 0.3218617 0.0341297 0.8260632 33.2770029 -0.3625798 47.2317389 15.8930787
1.6712937 -0.2101838 1.1089314 0.031327 -0.086680 0.001587 -0.3547883 -0.1592030 -1.2387278 26.7345827 3.1397536 48.4562265 17.1022867
1.5799445 -0.1685691 1.1239375 0.053915 -0.055177 -0.000380 -0.5210787 -0.5152745 -2.5762581 20.8561621 6.0618604 48.9681976 18.4416605
1.4836974 -0.1306578 1.1309485 0.072556 -0.026632 -0.003144 -0.4200787 -0.8215046 -3.1620881 15.7925710 8.5242152 49.0502955 19.4638461
1.3827218 -0.0963799 1.1313453 0.087466 -0.001785 -0.006355 -0.2598957 -1.0691855 -3.4498558 11.4320004 10.5548107 48.8742159 20.5765399
2.0680986 -0.4737034 0.7098765 -0.141142 -0.257144 -0.001334 20.9057919 -11.4932766 4.9938379 68.9321937 -20.9888394 10.4049631 9.6794544
2.0601922 -0.4256514 0.7965130 -0.105533 -0.257302 -0.001051 20.3115292 -8.3559850 9.6846320 67.5029724 -15.9203306 20.2348938 9.7732287
2.0297988 -0.3742825 0.8761320 -0.068257 -0.244835 0.000569 15.8580086 -4.3711103 11.6202139 62.9976711 -10.7201702 28.7847502 10.4771040
1.9798815 -0.3221583 0.9450843 -0.031996 -0.221626 0.002737 9.9505675 -1.2832955 10.2240859 56.3378558 -5.7055281 35.5745778 11.6877837
1.9142560 -0.2714377 1.0014989 0.001523 -0.190778 0.004324 4.8372363 0.2138012 6.7134932 48.4890503 -1.0765311 40.5180943 13.1455492
1.8366933 -0.2235805 1.0451118 0.031165 -0.155496 0.004757 1.5279211 0.4053180 2.8322792 40.4366829 2.9311059 43.7483968 14.7061910
1.7503124 -0.1793611 1.0767564 0.056681 -0.119084 0.003738 -0.1198682 -0.0680949 -0.2985150 32.7880101 6.3614227 45.6570474 16.2346429
1.6573417 -0.1390503 1.0978340 0.078082 -0.083796 0.001384 -0.6674343 -0.6762153 -2.2814539 25.9442407 9.1831340 46.6599377 17.6693007
1.5591210 -0.1026279 1.1099210 0.095560 -0.051450 -0.001908 -0.6809540 -1.1748262 -3.3297864 19.9604418 11.5390984 47.0463381 18.9510290
1.4562129 -0.0699582 1.1145484 0.109213 -0.022923 -0.005713 -0.4943354 -1.4908378 -3.7290768 14.8727688 13.4539152 47.0766001 20.1104779
2.1033304 -0.3848288 0.7116788 -0.073476 -0.283318 0.000252 29.2940513 -7.5815177 6.5897328 73.1348950 -11.6856394 10.3970733 8.5495908
2.0836999 -0.3343520 0.7981731 -0.035896 -0.275375 0.002039 24.8381449 -3.1332904 11.2845891 69.8749682 -6.7305890 19.9626719 9.0482341
2.0416007 -0.2832156 0.8758495 0.000361 -0.254678 0.004505 16.8141672 0.2630828 11.8665840 63.7383283 -1.8969738 28.0755409 10.3062570
1.9809059 -0.2336498 0.9416097 0.033232 -0.224280 0.006533 8.9992513 1.6245459 8.9965448 55.8021118 2.5644322 34.3647351 11.7874523
1.9058813 -0.1871629 0.9942617 0.061691 -0.187940 0.007254 3.4044075 1.3157821 4.6428694 47.1536945 6.4538887 38.7916196 13.6036402
1.8203043 -0.1445284 1.0341057 0.085606 -0.149317 0.006269 0.4180799 0.2759769 0.7691913 38.7074029 9.7465451 41.6494675 15.2301305
1.7270312 -0.1059787 1.0623311 0.105237 -0.111251 0.003685 -0.7881799 -0.8236175 -1.9689060 30.9843054 12.4329070 43.3323509 16.9210492
1.6279359 -0.0714358 1.0805159 0.120880 -0.075828 -0.000040 -0.9827276 -1.5933120 -3.4100803 24.2138774 14.6433866 44.2186098 18.2815264
1.5240323 -0.0406980 1.0902961 0.132877 -0.044221 -0.004428 -0.8047914 -2.0591994 -4.0541410 18.4121216 16.3977505 44.6245122 19.6648991
2.1153005 -0.2895816 0.7115413 0.000573 -0.293888 0.001954 30.9805969 0.1260180 6.7396137 73.5547095 -2.4360833 10.0825500 8.3339713
2.0837917 -0.2399473 0.7960452 0.036545 -0.277534 0.004910 22.7349994 3.2031275 10.1015341 68.6599229 2.1336858 19.1486092 9.3666936
2.0309773 -0.1920500 0.8704042 0.068558 -0.249796 0.007600 13.1300253 3.9149128 9.1589609 61.3589631 6.4079067 26.6796617 10.9226269
1.9611950 -0.1474013 0.9322224 0.095540 -0.214436 0.008979 5.5480831 2.7278210 5.5391759 52.7598358 10.1554507 32.3808743 12.7279995
1.8786913 -0.1067534 0.9809143 0.117559 -0.175390 0.008397 1.0686616 0.7944588 1.4708233 43.8966471 13.2821914 36.3607186 14.5522144
1.7869392 -0.0702934 1.0171703 0.134926 -0.135901 0.005966 -0.8836918 -0.9608195 -1.6588238 35.5948991 15.7942756 38.9261784 16.3028295
1.6884134 -0.0378896 1.0423782 0.148405 -0.098515 0.002060 -1.3569256 -2.1447692 -3.5001437 28.1723890 17.8171477 40.5017554 17.8764667
1.5846499 -0.0092830 1.0581853 0.158288 -0.064713 -0.002677 -1.1808498 -2.7532602 -4.2906190 21.8080346 19.4298422 41.4204378 19.2678190
2.1030075 -0.1943387 0.7094706 0.073858 -0.287446 0.003323 24.6857725 6.4377547 5.3205257 70.4848004 6.1952482 9.5513531 9.0768400
2.0609360 -0.1484653 0.7904540 0.105029 -0.264375 0.006786 15.3921920 6.3255028 6.8490406 64.4231779 10.2128651 17.9650571 10.3736111
1.9994195 -0.1059513 0.8605642 0.130596 -0.232203 0.009108 6.9629671 4.1349908 4.9153408 56.5208277 13.7438175 24.7955846 12.1698436
1.9227469 -0.0675087 0.9180595 0.150578 -0.194789 0.009433 1.5310946 1.2686236 1.5632381 47.8854228 16.6757263 29.9116710 13.9417370
1.8348136 -0.0332806 0.9627907 0.165711 -0.155784 0.007604 -1.0839578 -1.2389647 -1.5421532 39.4168172 19.0337837 33.4887638 15.8259313
1.7386766 -0.0030926 0.9956827 0.176811 -0.117878 0.003933 -1.7838080 -2.8207897 -3.5012538 31.6972524 20.9085826 35.9054074 17.3853129
1.6364529 0.0233504 1.0182209 0.184543 -0.083041 -0.000864 -1.6412856 -3.6438099 -4.4837441 24.9115461 22.3711501 37.4608036 18.9586662
2.0684233 -0.1050069 0.7057872 0.139689 -0.266636 0.004000 14.2277332 7.5350918 3.1065264 64.6300229 13.8855987 8.8614885 10.5735956
2.0179882 -0.0647409 0.7821871 0.164229 -0.239704 0.007343 6.7719945 4.7592276 3.0842693 58.0356333 17.1776183 16.4941340 12.1061203
1.9500673 -0.0285328 0.8475074 0.182807 -0.206238 0.008833 1.3386236 1.2359891 0.9771229 50.1677358 19.9393873 22.6113492 13.8402653
1.8685634 0.0035194 0.9004911 0.196049 -0.169579 0.008032 -1.4756299 -1.7934757 -1.5740332 42.0601280 22.1260013 27.2055657 15.5949167
1.7769408 0.0316145 0.9412739 0.205139 -0.132835 0.005060 -2.3200467 -3.7472135 -3.4856387 34.3511511 23.8482413 30.5136955 17.2608198
1.6779007 0.0560548 0.9709357 0.210746 -0.098197 0.000629 -2.1502792 -4.6895538 -4.5086419 27.4543173 25.1786545 32.7925668 18.7701278
2.0155490 -0.0255818 0.7009897 0.193910 -0.236536 0.003956 4.7427548 3.9253772 1.0707268 57.1101026 20.3028429 8.0608523 12.5077673
1.9590278 0.0084735 0.7721856 0.211634 -0.208652 0.006548 0.3799156 0.3932273 0.1806503 50.5868810 22.8214094 14.9289404 13.9077554
1.8866157 0.0385281 0.8324032 0.223773 -0.176292 0.007035 -2.1440669 -2.8056431 -1.6498248 43.3182329 24.8536342 20.3968610 15.6120474
1.8017910 0.0648029 0.8806997 0.231340 -0.142316 0.005188 -2.8986595 -4.8684473 -3.2915177 36.0824163 26.4677214 24.5466814 17.1227095
1.7077259 0.0875706 0.9174433 0.235471 -0.109320 0.001523 -2.6830721 -5.8899081 -4.3351507 29.3107441 27.7205878 27.5673464 18.6893806
1.9489834 0.0422264 0.6955743 0.235445 -0.202593 0.003330 -1.1958509 -1.4022191 -0.2843069 49.0630900 25.3483212 7.2275222 14.5447690
1.8881287 0.0704318 0.7612406 0.247241 -0.175958 0.004961 -2.9800135 -4.2561647 -1.5052971 43.0616510 27.2465074 13.3315633 15.9408422
1.8124059 0.0951709 0.8160757 0.254342 -0.146294 0.004320 -3.4952451 -6.2055814 -2.8818570 36.6019013 28.7828665 18.2294609 17.3763563
1.7251383 0.1166774 0.8593874 0.257546 -0.116050 0.001658 -3.1634842 -7.1328233 -3.8822362 30.3261302 29.9660644 21.9724132 18.7903245
1.8728582 0.0984940 0.6899068 0.265365 -0.168987 0.002246 -3.7237255 -5.8968889 -0.9468047 41.4028738 29.2005514 6.4738106 16.4674327
1.8085919 0.1217876 0.7497906 0.272481 -0.144664 0.002727 -3.9400651 -7.5132773 -2.1435191 36.1296188 30.6434937 11.9254961 17.6137762
1.7299614 0.1423592 0.7987722 0.275722 -0.118365 0.001227 -3.5258088 -8.3093847 -3.1504955 30.5354531 31.8237622 16.2360214 18.9898783
1.7903859 0.1443407 0.6841598 0.285782 -0.138252 0.001187 -4.1977783 -8.7463769 -1.1527325 34.5153784 32.1664727 5.7186755 18.2428218
1.7226307 0.1639505 0.7376998 0.289465 -0.116642 0.000539 -3.7292676 -9.3337692 -2.1988489 29.8857880 33.2290188 10.4870863 19.3424393
1.7037774 0.1813125 0.6781136 0.298577 -0.111087 -0.000135 -3.5236244 -9.5206111 -1.0444290 28.7549282 34.6488996 5.1678260 19.7355009
1.6721627 0.1954285 0.6212299 0.303398 -0.102344 0.000000 -4.0330406 -12.0835847 -0.0000000 26.3005318 34.1043807 0.0000001 20.3177202
1.7568318 0.1634590 0.6212299 0.293927 -0.127187 0.000000 -3.9092291 -9.0967605 -0.0000000 32.1250148 33.4026187 0.0000000 18.7727943
1.8405812 0.1228052 0.6212299 0.277914 -0.156128 0.000000 -4.1807801 -7.4905895 -0.0000000 38.5245597 30.8075088 0.0000001 17.2720902
1.9200739 0.0721631 0.6212299 0.253279 -0.188889 0.000000 -2.6881285 -3.6254350 -0.0000000 45.9121991 27.4870870 -0.0000000 15.3043564
1.9921466 0.0102488 0.6212299 0.217783 -0.223518 0.000000 1.6884610 1.6535671 0.0000000 53.9943551 23.0454973 0.0000002 13.3540847
2.0528768 -0.0636039 0.6212299 0.169803 -0.256712 0.000000 10.0778647 6.6964738 0.0000001 62.0481056 17.2785170 0.0000002 11.2272824
2.0976486 -0.1486737 0.6212299 0.109106 -0.283439 0.000000 21.2916306 8.2321822 0.0000002 69.0336697 10.1625658 0.0000004 9.5128859
2.1218455 -0.2420986 0.6212299 0.038223 -0.297960 0.000000 31.0488096 4.0092773 0.0000004 73.7278104 1.9193881 0.0000007 8.2308585
2.1221955 -0.3387238 0.6212299 -0.037134 -0.296049 0.000000 33.6951487 -4.2146977 0.0000005 75.1917705 -7.1109054 0.0000007 8.0463118
2.0981417 -0.4320558 0.6212299 -0.109542 -0.277091 -0.000000 27.8014791 -10.9860597 0.0000005 72.9230946 -16.5289102 0.0000012 8.6832684
2.0522298 -0.5160637 0.6212299 -0.172447 -0.244274 -0.000000 17.1333009 -12.0886334 0.0000004 66.8786286 -25.5881487 0.0000010 10.2486971
1.9891862 -0.5867375 0.6212299 -0.222327 -0.203355 -0.000000 7.3589278 -8.0359796 0.0000002 58.0212401 -33.2044737 0.0000011 12.0719371
1.9144218 -0.6425221 0.6212299 -0.258989 -0.160089 -0.000000 1.1988616 -1.9351626 0.0000000 47.9339493 -38.6889609 0.0000010 14.1160016
1.8329497 -0.6838055 0.6212299 -0.283802 -0.118587 -0.000000 -1.3459271 3.2094375 -0.0000001 38.0501932 -42.1308089 0.0000009 15.8211451
1.7496163 -0.7120120 0.6212299 -0.300070 -0.080488 -0.000000 -1.9970552 7.3789824 -0.0000001 29.2859820 -44.5788785 0.0000007 17.5497304
1.6913904 -0.7221285 0.5616733 -0.303866 -0.060231 0.001604 -2.0634905 10.3778665 1.1234042 23.7985871 -43.8146581 -5.6817481 18.4152240
1.7075534 -0.7073045 0.4971464 -0.294526 -0.067880 0.003284 -1.7074036 7.4481016 1.8531324 25.7042083 -43.0251676 -12.8186934 17.9578391
1.7141800 -0.6840522 0.4305772 -0.279388 -0.072927 0.004878 -1.5473096 6.0448848 2.4653260 26.5110573 -40.9075605 -19.8798939 17.7826007
1.7093808 -0.6528314 0.3651792 -0.259255 -0.074715 0.005658 -1.3104338 4.7221430 2.8036999 26.5672397 -37.9022852 -26.7401125 17.5107287
1.6923446 -0.6146134 0.3036506 -0.234171 -0.072228 0.005490 -1.0609539 3.6323756 2.9634274 25.5277477 -34.1450499 -32.9617373 17.5849306
1.6631319 -0.5708783 0.2482969 -0.205814 -0.065255 0.004311 -0.8115353 2.7244201 2.9653830 23.6537626 -29.9078226 -38.2626005 17.6367748
1.6225079 -0.5233795 0.2007851 -0.175133 -0.053975 0.002485 -0.6020188 2.0562786 2.9493646 21.0620875 -25.4879617 -42.5452407 18.0117158
1.5717144 -0.4738913 0.1620432 -0.143975 -0.039202 0.000415 -0.4206004 1.5358519 2.9059889 18.0999468 -21.0893973 -45.7855505 18.3434907
1.5122233 -0.4239946 0.1322920 -0.113192 -0.022035 -0.001389 -0.2712035 1.1479194 2.9073081 14.8866457 -16.9249703 -48.0973905 18.9684529
1.4455338 -0.3749561 0.1111828 -0.084133 -0.003898 -0.002575 -0.1392332 0.8179371 2.8637523 11.7777709 -13.0549708 -49.6298930 19.4349844
1.3730463 -0.3276969 0.0979794 -0.057181 0.013959 -0.002961 -0.0290168 0.5560862 2.8627058 8.7944396 -9.5531932 -50.5701643 20.1493761
1.2960245 -0.2828310 0.0917188 -0.033016 0.030405 -0.002505 0.0616877 0.3191994 2.7408080 6.1237957 -6.4369445 -51.1320782 20.6495262
1.2156587 -0.2407474 0.0913332 -0.011738 0.044551 -0.001367 0.1396364 0.1391798 2.8214163 3.7616858 -3.6468394 -51.2985424 21.3359008
1.1332009 -0.2016992 0.0957067 0.006370 0.055896 0.000066 0.2004888 -0.0249635 2.8253439 1.8492181 -1.2264251 -51.0434863 21.7424577
1.0507505 -0.1661210 0.1035986 0.021604 0.064096 0.001836 0.3498746 -0.2438287 3.9897227 0.0493442 0.9297125 -51.7394390 22.3899779
1.7037774 0.1813125 0.5643462 0.298577 -0.111087 0.000135 -3.5236248 -9.5206120 1.0444290 28.7549279 34.6488987 -5.1678258 19.7355010
1.7226307 0.1639505 0.5047599 0.289465 -0.116642 -0.000539 -3.7292677 -9.3337695 2.1988490 29.8857882 33.2290185 -10.4870860 19.3424393
1.7299614 0.1423591 0.4436876 0.275722 -0.118365 -0.001227 -3.5258088 -8.3093845 3.1504954 30.5354535 31.8237623 -16.2360215 18.9898783
1.7251383 0.1166774 0.3830724 0.257546 -0.116050 -0.001658 -3.1634835 -7.1328216 3.8822353 30.3261315 29.9660659 -21.9724141 18.7903245
1.7077259 0.0875706 0.3250164 0.235471 -0.109320 -0.001523 -2.6830718 -5.8899074 4.3351502 29.3107450 27.7205883 -27.5673471 18.6893805
1.6779007 0.0560548 0.2715240 0.210746 -0.098197 -0.000629 -2.1502790 -4.6895533 4.5086414 27.4543182 25.1786547 -32.7925673 18.7701277
1.6364529 0.0233504 0.2242389 0.184543 -0.083041 0.000864 -1.6412858 -3.6438103 4.4837446 24.9115463 22.3711492 -37.4608031 18.9586661
1.5846499 -0.0092830 0.1842745 0.158288 -0.064713 0.002677 -1.1808500 -2.7532604 4.2906194 21.8080351 19.4298414 -41.4204373 19.2678188
1.5240323 -0.0406980 0.1521637 0.132877 -0.044221 0.004428 -0.8047914 -2.0591993 4.0541408 18.4121221 16.3977502 -44.6245125 19.6648990
1.4562129 -0.0699582 0.1279114 0.109213 -0.022923 0.005713 -0.4943354 -1.4908376 3.7290765 14.8727692 13.4539148 -47.0766003 20.1104778
1.3827218 -0.0963799 0.1111145 0.087466 -0.001785 0.006355 -0.2598957 -1.0691854 3.4498559 11.4320008 10.5548103 -48.8742160 20.5765399
1.3049035 -0.1195183 0.1010936 0.067977 0.018021 0.006209 -0.0798637 -0.7302269 3.1278217 8.1426495 7.8561045 -50.0965701 21.0501204
1.2238201 -0.1391202 0.0970222 0.050473 0.035889 0.005258 0.0537974 -0.5082485 3.0396924 5.1782773 5.2711022 -50.6668941 21.5161768
1.1399101 -0.1549403 0.0980436 0.035057 0.051196 0.003762 0.1285634 -0.2545209 2.3310933 2.4815725 3.0163558 -51.5335691 21.9216464
1.7903859 0.1443407 0.5583000 0.285782 -0.138252 -0.001187 -4.1977787 -8.7463779 1.1527325 34.5153781 32.1664717 -5.7186753 18.2428217
1.8085919 0.1217876 0.4926692 0.272481 -0.144664 -0.002727 -3.9400656 -7.5132781 2.1435192 36.1296186 30.6434927 -11.9254958 17.6137761
1.8124059 0.0951709 0.4263841 0.254342 -0.146294 -0.004320 -3.4952449 -6.2055811 2.8818568 36.6019018 28.7828665 -18.2294608 17.3763561
1.8017910 0.0648029 0.3617601 0.231340 -0.142316 -0.005188 -2.8986594 -4.8684468 3.2915174 36.0824170 26.4677214 -24.5466814 17.1227093
1.7769409 0.0316145 0.3011859 0.205139 -0.132835 -0.005060 -2.3200470 -3.7472139 3.4856391 34.3511513 23.8482404 -30.5136947 17.2608197
1.7386766 -0.0030926 0.2467771 0.176811 -0.117878 -0.003933 -1.7838080 -2.8207896 3.5012537 31.6972531 20.9085821 -35.9054071 17.3853127
1.6884134 -0.0378896 0.2000816 0.148405 -0.098515 -0.002060 -1.3569254 -2.1447689 3.5001432 28.1723898 17.8171476 -40.5017557 17.8764666
1.6279359 -0.0714358 0.1619439 0.120880 -0.075828 0.000040 -0.9827278 -1.5933122 3.4100808 24.2138779 14.6433857 -44.2186091 18.2815261
1.5591210 -0.1026279 0.1325388 0.095560 -0.051450 0.001908 -0.6809540 -1.1748262 3.3297863 19.9604425 11.5390978 -47.0463381 18.9510289
1.4836974 -0.1306578 0.1115113 0.072556 -0.026632 0.003144 -0.4200788 -0.8215045 3.1620882 15.7925715 8.5242145 -49.0502953 19.4638459
1.4030597 -0.1549926 0.0981633 0.052364 -0.002813 0.003536 -0.2150578 -0.5525521 3.0356064 11.7451350 5.7459422 -50.3354159 20.1778214
1.3180777 -0.1752829 0.0916266 0.034489 0.019305 0.003078 -0.0475041 -0.3247995 2.8106333 8.1032265 3.1367097 -51.0775801 20.6466848
1.2287327 -0.1911516 0.0910329 0.019308 0.038912 0.001886 0.0794830 -0.1529669 2.6376037 4.7093061 0.8251383 -51.4481297 21.3427963
1.8728582 0.0984940 0.5525529 0.265365 -0.168987 -0.002246 -3.7237257 -5.8968891 0.9468047 41.4028738 29.2005510 -6.4738105 16.4674327
1.8881287 0.0704318 0.4812192 0.247241 -0.175958 -0.004961 -2.9800141 -4.2561655 1.5052973 43.0616508 27.2465062 -13.3315626 15.9408421
1.8866157 0.0385281 0.4100566 0.223773 -0.176292 -0.007035 -2.1440658 -2.8056415 1.6498238 43.3182345 24.8536354 -20.3968616 15.6120473
1.8685635 0.0035194 0.3419687 0.196049 -0.169579 -0.008032 -1.4756300 -1.7934758 1.5740332 42.0601285 22.1260006 -27.2055651 15.5949165
1.8348136 -0.0332806 0.2796690 0.165711 -0.155784 -0.007604 -1.0839578 -1.2389646 1.5421532 39.4168176 19.0337833 -33.4887635 15.8259312
1.7869392 -0.0702934 0.2252895 0.134926 -0.135901 -0.005966 -0.8836924 -0.9608201 1.6588249 35.5948991 15.7942744 -38.9261767 16.3028292
1.7270312 -0.1059787 0.1801286 0.105237 -0.111251 -0.003685 -0.7881794 -0.8236170 1.9689047 30.9843065 12.4329071 -43.3323518 16.9210490
1.6573417 -0.1390503 0.1446258 0.078082 -0.083796 -0.001384 -0.6674341 -0.6762151 2.2814532 25.9442415 9.1831337 -46.6599380 17.6693004
1.5799445 -0.1685691 0.1185222 0.053915 -0.055177 0.000380 -0.5210787 -0.5152744 2.5762577 20.8561627 6.0618601 -48.9681980 18.4416604
1.4964831 -0.1939186 0.1010952 0.033025 -0.027068 0.001279 -0.3374907 -0.3266286 2.6956545 15.9651187 3.2079020 -50.4193398 19.2122290
1.4079831 -0.2146972 0.0913960 0.015216 -0.000497 0.001208 -0.1617019 -0.1516053 2.7575613 11.4306935 0.5867605 -51.1838397 19.9759969
1.3146531 -0.2305252 0.0884356 0.000308 0.023481 0.000236 -0.0020970 0.0039634 2.7128505 7.3616842 -1.6727126 -51.4337013 20.6680161
1.9489834 0.0422264 0.5468855 0.235445 -0.202593 -0.003330 -1.1958516 -1.4022199 0.2843070 49.0630892 25.3483200 -7.2275219 14.5447689
1.9590278 0.0084735 0.4702742 0.211634 -0.208652 -0.006548 0.3799167 0.3932285 -0.1806509 50.5868822 22.8214102 -14.9289404 13.9077552
1.9500673 -0.0285328 0.3949524 0.182807 -0.206238 -0.008833 1.3386255 1.2359909 -0.9771242 50.1677379 19.9393886 -22.6113499 13.8402650
1.9227469 -0.0675087 0.3244003 0.150578 -0.194789 -0.009433 1.5310940 1.2686230 -1.5632374 47.8854225 16.6757252 -29.9116693 13.9417368
1.8786913 -0.1067534 0.2615455 0.117559 -0.175390 -0.008397 1.0686625 0.7944595 -1.4708245 43.8966486 13.2821915 -36.3607190 14.5522142
1.8203043 -0.1445284 0.2083541 0.085606 -0.149317 -0.006269 0.4180807 0.2759774 -0.7691929 38.7074046 9.7465450 -41.6494683 15.2301302
1.7503124 -0.1793611 0.1657034 0.056681 -0.119084 -0.003738 -0.1198676 -0.0680946 0.2985135 32.7880114 6.3614225 -45.6570484 16.2346428
1.6712937 -0.2101838 0.1335284 0.031327 -0.086680 -0.001587 -0.3547885 -0.1592030 1.2387284 26.7345831 3.1397529 -48.4562253 17.1022864
1.5853350 -0.2363193 0.1111222 0.010044 -0.054268 -0.000264 -0.3855970 -0.0998315 2.0261569 20.7904132 0.2450764 -50.1656682 18.1804629
1.4938423 -0.2573615 0.0974365 -0.007730 -0.023259 -0.000049 -0.2640161 0.0385793 2.4320370 15.3639027 -2.3321115 -51.0343858 18.9932507
1.3974505 -0.2730010 0.0913310 -0.021899 0.005190 -0.000859 -0.1032437 0.1904346 2.7014539 10.4218205 -4.5411257 -51.2750532 19.9589973
2.0155490 -0.0255818 0.5414701 0.193910 -0.236536 -0.003956 4.7427520 3.9253749 -1.0707261 57.1100996 20.3028402 -8.0608513 12.5077674
2.0179882 -0.0647409 0.4602727 0.164229 -0.239704 -0.007343 6.7719949 4.7592278 -3.0842693 58.0356337 17.1776180 -16.4941333 12.1061202
1.9994195 -0.1059513 0.3818956 0.130596 -0.232203 -0.009108 6.9629672 4.1349907 -4.9153406 56.5208276 13.7438169 -24.7955837 12.1698435
1.9611950 -0.1474013 0.3102374 0.095540 -0.214436 -0.008979 5.5480841 2.7278213 -5.5391767 52.7598370 10.1554505 -32.3808740 12.7279992
1.9058813 -0.1871629 0.2481981 0.061691 -0.187940 -0.007254 3.4044075 1.3157820 -4.6428693 47.1536947 6.4538883 -38.7916185 13.6036400
1.8366933 -0.2235805 0.1973479 0.031165 -0.155496 -0.004757 1.5279207 0.4053178 -2.8322783 40.4366832 2.9311054 -43.7483948 14.7061907
1.7568314 -0.2554728 0.1580072 0.004990 -0.119713 -0.002386 0.3218608 0.0341296 -0.8260609 33.2770026 -0.3625802 -47.2317360 15.8930785