# volRat = 0.650000
# viscRat = 5.000000
# alpha = 0.500000
# shRate = 3.182000
# tnum = 2000
# time = 1.594998
VARIABLES = X, Y, Z, U, V, W, F_B0, F_B1, F_B2, F_0, F_1, F_2, T
ZONE N=2562 E=5120 F=FEPOINT ET=TRIANGLE
1.6126653 0.2168165 0.6212299 0.307880 -0.092987 -0.000000 1.4374209 4.9248004 0.0000010 23.4525888 36.5705916 0.0000004 21.2022491
-1.6713888 0.7269787 0.6212299 0.309478 0.056136 -0.000000 -2.0059115 11.0807219 0.0000025 -23.1298060 50.4718812 0.0000019 18.8505192
1.6713888 -0.7269787 0.6212299 -0.309478 -0.056136 -0.000000 2.0059121 -11.0807249 0.0000025 23.1298068 -50.4718843 0.0000020 18.8505191
-1.6126653 -0.2168165 0.6212299 -0.307879 0.092987 -0.000000 -1.4374203 -4.9247982 0.0000010 -23.4525888 -36.5705893 0.0000005 21.2022490
0.9874664 -0.0453994 1.1136372 0.083160 0.060451 -0.011049 -0.7106466 3.1036563 10.1746633 0.0183494 11.6470140 51.4814189 23.0907150
0.9874664 -0.0453994 0.1288225 0.083160 0.060451 0.011049 -0.7106486 3.1036973 -10.1747521 0.0183455 11.6470501 -51.4815137 23.0907146
-0.9874664 0.0453994 1.1136372 -0.083160 -0.060451 -0.011049 0.7106466 -3.1036559 10.1746623 -0.0183494 -11.6470130 51.4814179 23.0907149
-0.9874664 0.0453994 0.1288225 -0.083160 -0.060451 0.011049 0.7106488 -3.1036978 -10.1747547 -0.0183455 -11.6470502 -51.4815161 23.0907144
-0.0730024 0.3535219 0.8420356 0.176239 -0.038808 0.010565 -13.7673425 -62.5576270 -38.1142292 -3.1336553 -11.5506286 -3.0921353 25.6187975
0.0730024 -0.3535219 0.8420356 -0.176239 0.038808 0.010565 13.7673679 62.5577499 -38.1140411 3.1336788 11.5507293 -3.0919911 25.6187981
-0.0730024 0.3535219 0.4004242 0.176239 -0.038808 -0.010565 -13.7672995 -62.5573995 38.1139586 -3.1336093 -11.5503858 3.0918838 25.6187982
0.0730024 -0.3535219 0.4004242 -0.176239 0.038808 -0.010565 13.7673052 62.5574042 38.1139905 3.1336154 11.5503932 3.0919105 25.6187976
1.6356860 0.2090778 0.6626747 0.306405 -0.100265 -0.000673 -3.2838233 -10.6189338 -0.7628458 25.4410086 38.0849392 3.5261439 21.0308528
1.6533265 0.1981373 0.7086372 0.301814 -0.103815 -0.000951 -3.3966264 -10.3476798 -1.7096114 26.1188797 35.7104657 7.8277856 20.6041237
1.6627415 0.1844757 0.7576842 0.294322 -0.105080 -0.001091 -3.2663025 -9.5115595 -2.5488911 26.6809636 34.8826583 12.3614897 20.4564087
1.6620714 0.1684716 0.8080203 0.283220 -0.104344 -0.001556 -2.9910254 -8.4767815 -3.2376238 26.8351677 33.9567590 17.1422799 20.1773132
1.6503634 0.1505183 0.8579903 0.269837 -0.099644 -0.002143 -2.7317297 -7.6965161 -3.9047219 26.1389278 32.5703237 21.8528266 20.2188649
1.6273536 0.1311181 0.9059385 0.254025 -0.091441 -0.003300 -2.3549361 -6.7599143 -4.3554757 24.8719650 31.0021408 26.4513376 20.1641046
1.5933775 0.1108535 0.9503823 0.236742 -0.080041 -0.005036 -1.9403447 -5.8385945 -4.6298819 22.9429511 29.2890865 30.7454353 20.4088381
1.5492498 0.0903190 0.9901481 0.218411 -0.065706 -0.007269 -1.5051520 -4.9111196 -4.6841315 20.5920647 27.4223284 34.6827741 20.5528890
1.4961089 0.0700445 1.0244540 0.199937 -0.049295 -0.009684 -1.1090465 -4.0937389 -4.6170679 17.8484566 25.5134923 38.0922640 20.9605332
1.4352590 0.0504407 1.0529187 0.181548 -0.031487 -0.012097 -0.7551011 -3.3404732 -4.4008908 14.9845047 23.5023076 41.0514506 21.1960180
1.3680441 0.0317751 1.0755076 0.163789 -0.013284 -0.014143 -0.4756056 -2.7587500 -4.2119104 12.0289594 21.4687782 43.4456661 21.6789144
1.2957806 0.0141808 1.0924530 0.146542 0.004503 -0.015723 -0.2442170 -2.2132330 -3.9010291 9.2068542 19.4150869 45.4822978 21.9312311
1.2197837 -0.0023128 1.1041696 0.129981 0.021103 -0.016757 -0.0645833 -1.6249282 -3.3085404 6.5141306 17.5484825 47.4853887 22.3913846
1.1414722 -0.0177419 1.1111999 0.113889 0.036256 -0.016642 0.0680206 -1.6741045 -3.9587466 4.0864792 15.0835972 48.0554272 22.5986116
1.0630724 -0.0321000 1.1141537 0.098357 0.049611 -0.014249 0.3428518 -2.5411270 -7.0826547 1.9543185 12.3622701 47.0739632 23.0113246
1.7818515 -0.6950032 0.6970533 -0.289988 -0.101190 -0.003052 -1.6954892 4.9875793 -0.7818386 33.2473904 -43.5206290 8.2954028 17.1023927
1.7973871 -0.6704434 0.7743045 -0.273815 -0.110868 -0.005397 -1.4732699 3.7701844 -1.2867063 35.1285314 -41.2358719 16.7244422 16.6990259
1.7996583 -0.6355051 0.8504221 -0.250653 -0.116389 -0.007131 -1.0086461 2.2884925 -1.2886439 35.8157248 -37.6436128 25.1539798 16.3648030
1.7882974 -0.5910016 0.9221039 -0.220790 -0.116720 -0.007615 -0.5933734 1.2046103 -1.0145903 35.0709413 -33.0311268 32.7662794 16.2849766
1.7634143 -0.5386940 0.9863217 -0.185906 -0.111412 -0.006810 -0.3313666 0.6022305 -0.7320644 33.1439894 -27.6642679 39.2517376 16.3682746
1.7258965 -0.4809337 1.0407641 -0.147737 -0.100367 -0.005085 -0.2457439 0.3952729 -0.6947895 30.1789789 -21.9637611 44.2916522 16.7194752
1.6772252 -0.4202706 1.0841214 -0.108452 -0.084497 -0.003188 -0.2736402 0.3767089 -0.9967816 26.5576650 -16.2352024 47.8886675 17.2383769
1.6191722 -0.3591026 1.1161044 -0.069782 -0.065149 -0.001850 -0.3006033 0.3252868 -1.4403621 22.6557452 -10.8255389 50.2191567 17.9132249
1.5535121 -0.2994489 1.1372666 -0.033396 -0.044151 -0.001554 -0.3051875 0.1990455 -1.9969017 18.7480377 -5.7986406 51.4653137 18.6715515
1.4818287 -0.2428621 1.1487513 -0.000310 -0.023086 -0.002476 -0.2535609 -0.0192604 -2.4157389 15.0338648 -1.3391689 51.9298793 19.4927303
1.4054200 -0.1904351 1.1520306 0.028632 -0.003479 -0.004469 -0.1752316 -0.2782349 -2.7434480 11.6697157 2.6263828 51.8400203 20.2822628
1.3252695 -0.1428616 1.1487079 0.053113 0.013829 -0.007218 -0.0826611 -0.5267999 -2.8776633 8.6856489 6.0249506 51.4238140 21.0567763
1.2420072 -0.1005070 1.1403592 0.072996 0.028267 -0.010315 0.0032248 -0.7311623 -2.8788274 6.0719860 8.9544726 50.9024572 21.7854757
1.1556113 -0.0635451 1.1284550 0.088213 0.039969 -0.012962 0.0767592 -0.9172968 -2.9185796 3.8647667 11.3303476 50.1472734 22.4128453
1.8658863 -0.6590277 0.7029946 -0.268447 -0.141199 -0.003190 -0.5131485 1.0001280 -0.1901122 42.7242809 -40.8441620 9.2114155 15.4380995
1.8796489 -0.6268726 0.7852743 -0.246950 -0.152000 -0.005977 0.4865161 -0.8199020 0.3440680 44.6972708 -37.4541638 18.6739754 14.8320024
1.8769011 -0.5846701 0.8644563 -0.217935 -0.156101 -0.007256 1.1641851 -1.7129542 1.2142314 44.6670743 -32.9459686 27.4815370 14.7081672
1.8581574 -0.5338086 0.9369963 -0.183128 -0.153309 -0.007068 1.4098996 -1.8036327 1.9821690 42.9289860 -27.4750048 35.2040980 14.6820960
1.8244974 -0.4766042 0.9999390 -0.144107 -0.143169 -0.005602 1.1213297 -1.2207030 2.0474337 39.5675632 -21.5656336 41.3473250 15.1471207
1.7777026 -0.4157632 1.0513729 -0.103597 -0.126692 -0.003527 0.6207384 -0.5452850 1.4537813 35.2881856 -15.5600160 45.8393378 15.6646004
1.7199565 -0.3538991 1.0905839 -0.063303 -0.105289 -0.001840 0.1084218 -0.0673498 0.3265833 30.4380966 -9.8596371 48.7924028 16.5752997
1.6534641 -0.2932217 1.1179133 -0.025316 -0.081154 -0.001116 -0.2186069 0.0599537 -0.8596671 25.5420652 -4.5832054 50.4273912 17.4057770
1.5801583 -0.2354122 1.1344495 0.009397 -0.056267 -0.001749 -0.3648071 -0.0868795 -1.9269976 20.8401996 0.1070623 51.0831328 18.4753279
1.5015375 -0.1816391 1.1417151 0.039819 -0.032478 -0.003638 -0.3479580 -0.3737308 -2.5911121 16.5964850 4.2446768 51.0629298 19.3333072
1.4185817 -0.1326397 1.1414012 0.065823 -0.010859 -0.006528 -0.2658854 -0.7027713 -3.0426496 12.7615739 7.7678392 50.6164663 20.3842919
1.3316410 -0.0888204 1.1351920 0.086804 0.007777 -0.009891 -0.1504731 -0.9768339 -3.1841680 9.5001303 10.7970610 49.9196258 21.1041094
1.2401066 -0.0504085 1.1246501 0.103065 0.023453 -0.013283 -0.0444300 -1.2895386 -3.4702761 6.5912168 13.2133315 48.9666509 22.0291688
1.9440270 -0.6097148 0.7075920 -0.236989 -0.184031 -0.003328 3.4883475 -4.6104029 1.0856078 52.7825274 -36.1628963 10.1160602 13.5243677
1.9531503 -0.5700577 0.7934255 -0.209353 -0.193699 -0.005337 5.0550678 -5.6691948 3.0381673 54.1548319 -31.8466068 20.0404437 13.1136647
1.9432025 -0.5211607 0.8742751 -0.174813 -0.194686 -0.005960 5.4757959 -5.1756745 4.9012491 53.0392488 -26.4530378 29.1348115 13.0410714
1.9154284 -0.4651649 0.9463017 -0.135574 -0.186536 -0.004793 4.6438534 -3.5884957 5.6475646 49.7368625 -20.5178998 36.6071767 13.4226352
1.8719133 -0.4048432 1.0067672 -0.094177 -0.170292 -0.002790 3.0959300 -1.8146137 4.9203444 44.8801094 -14.3370681 42.3066536 14.1192858
1.8153225 -0.3429933 1.0543336 -0.052875 -0.147373 -0.000843 1.5283163 -0.5569516 3.1287555 39.1276754 -8.4652528 46.1735961 15.1010593
1.7484093 -0.2820040 1.0889775 -0.013779 -0.120414 0.000217 0.3573980 -0.0280982 0.9427824 33.1184800 -2.9932708 48.4454533 16.1976089
1.6735962 -0.2236782 1.1116547 0.021908 -0.091759 -0.000145 -0.2744161 -0.0869377 -0.9440449 27.3263393 1.8409430 49.4996258 17.3765754
1.5927300 -0.1692506 1.1238996 0.053366 -0.063712 -0.001973 -0.5028230 -0.4537166 -2.3121383 21.9953311 6.0837172 49.6901989 18.5348768
1.5069750 -0.1194993 1.1275026 0.080082 -0.037728 -0.004992 -0.4810931 -0.8861992 -3.0863898 17.2956825 9.7024879 49.3313841 19.6271252
1.4167399 -0.0748834 1.1242823 0.101930 -0.014833 -0.008727 -0.3600297 -1.2765554 -3.4800178 13.1627436 12.8041492 48.6554814 20.6503269
1.3215378 -0.0356987 1.1159673 0.118648 0.004815 -0.012767 -0.2075513 -1.5468102 -3.5521133 9.6096647 15.3551008 47.9172969 21.5773102
2.0123956 -0.5461389 0.7109885 -0.193271 -0.226088 -0.002639 10.9487938 -9.6271078 2.9719320 62.2468306 -29.4893619 10.6615614 11.6398314
2.0140873 -0.4997532 0.7987221 -0.159661 -0.232359 -0.003847 12.3961155 -8.8532812 6.5758326 62.4473929 -24.3673168 20.8927965 11.2983362
1.9948219 -0.4457097 0.8794851 -0.120706 -0.227664 -0.003102 11.1392315 -6.1938044 8.8868531 59.7049243 -18.5625149 29.7749034 11.6734149
1.9567263 -0.3867467 0.9494230 -0.079087 -0.212766 -0.001216 8.1242238 -3.1557661 8.8792464 54.7035902 -12.4515277 36.8977843 12.3336876
1.9028650 -0.3257797 1.0062625 -0.037483 -0.189218 0.000943 4.6410469 -0.9011596 6.6746416 48.2405583 -6.5621062 41.9781072 13.5212906
1.8365964 -0.2653494 1.0493620 0.001929 -0.160064 0.002307 1.9241568 0.0937448 3.5847100 41.2486784 -1.0404170 45.2271460 14.7328531
1.7609610 -0.2073668 1.0793658 0.037891 -0.128061 0.002162 0.2256151 0.0839143 0.5440019 34.2876398 3.8385457 46.9473562 16.2116444
1.6783185 -0.1531207 1.0977317 0.069415 -0.096017 0.000432 -0.5194956 -0.4292117 -1.6390318 27.8898247 8.1118223 47.5601350 17.4607310
1.5902032 -0.1034173 1.1063056 0.096323 -0.065834 -0.002744 -0.7209306 -1.0829888 -3.0482682 22.1459320 11.7435588 47.4495020 18.8576084
1.4973046 -0.0587455 1.1070411 0.118182 -0.038726 -0.006839 -0.6187823 -1.6006479 -3.6601510 17.1906184 14.8208740 46.9284552 19.9307561
1.3994744 -0.0194363 1.1018313 0.135015 -0.015260 -0.011353 -0.4379300 -1.9931720 -3.9197451 12.8931600 17.3675051 46.2222574 21.1030451
2.0661937 -0.4689518 0.7128782 -0.136711 -0.262599 -0.001504 20.7113298 -11.1522016 5.0625151 69.6645396 -21.0648213 10.8713763 9.9758814
2.0580870 -0.4176399 0.8006558 -0.098679 -0.262855 -0.001138 20.1154371 -7.8769104 9.7172323 68.1887521 -15.5980195 20.9132233 10.0724304
2.0280635 -0.3609713 0.8795082 -0.057575 -0.250764 0.000621 15.7499564 -3.7626271 11.5520678 63.6788253 -9.7932718 29.4453433 10.7718928
1.9792281 -0.3018784 0.9459411 -0.016477 -0.228085 0.003009 9.9006763 -0.6482353 10.0315176 57.0738210 -4.0607456 35.9601535 11.9801419
1.9154103 -0.2429939 0.9983510 0.022509 -0.197920 0.004647 4.7666552 0.6982703 6.4026362 49.3186918 1.3758111 40.4664012 13.4417836
1.8403053 -0.1863089 1.0367921 0.057742 -0.163459 0.004855 1.3802302 0.5813358 2.4178983 41.4113856 6.1764023 43.1343639 15.0237375
1.7569050 -0.1331514 1.0624516 0.088674 -0.128157 0.003251 -0.3396109 -0.2699165 -0.7749903 33.9050594 10.3976981 44.4379033 16.5848056
1.6672696 -0.0843379 1.0771298 0.114806 -0.094173 0.000019 -0.9307383 -1.2346594 -2.7980665 27.2041903 13.9438193 44.7999136 18.0687771
1.5725178 -0.0403641 1.0828588 0.136148 -0.063349 -0.004324 -0.9406012 -1.9986173 -3.8206873 21.3404768 16.9792462 44.5901370 19.4042504
1.4729177 -0.0015632 1.0816760 0.152474 -0.036299 -0.009242 -0.7248962 -2.4780700 -4.1666803 16.3279083 19.4767757 44.0752863 20.6212697
2.1006929 -0.3810312 0.7129267 -0.069488 -0.288117 0.000162 28.7632954 -7.3036845 6.5082788 73.8390475 -11.7696743 10.6687633 8.8871579
2.0813892 -0.3275670 0.7988059 -0.029685 -0.280439 0.001921 24.4389239 -2.7729394 11.0435903 70.5838559 -6.4360560 20.2857772 9.3789343
2.0403529 -0.2713621 0.8741248 0.010208 -0.260411 0.004512 16.5993840 0.7241981 11.4945449 64.4966740 -1.0161793 28.1975940 10.6227192
1.9814866 -0.2150417 0.9360409 0.047812 -0.230839 0.006612 8.8760748 2.0630050 8.5621294 56.6542384 4.1398844 34.0979986 12.0910012
1.9089737 -0.1606251 0.9836691 0.081576 -0.195511 0.007291 3.2442920 1.5329622 4.1816304 48.1359862 8.7777457 37.9895406 13.9138064
1.8264495 -0.1094559 1.0176397 0.110918 -0.158018 0.006010 0.1868735 0.1479609 0.3165815 39.8343860 12.8353303 40.2623029 15.5598010
1.7365932 -0.0623500 1.0395079 0.135589 -0.121300 0.002916 -1.0902331 -1.3443904 -2.4257711 32.2336515 16.2516267 41.2970653 17.2937072
1.6410643 -0.0197942 1.0512742 0.155594 -0.087347 -0.001543 -1.2939818 -2.4181231 -3.8293411 25.5732380 19.1505997 41.5705594 18.6976100
1.5406095 0.0178885 1.0550584 0.170924 -0.057258 -0.006758 -1.0933457 -3.0987600 -4.4259656 19.8461505 21.5268929 41.3949844 20.1422907
2.1126299 -0.2873952 0.7109794 0.003388 -0.298405 0.001813 30.4436634 0.0864946 6.5341393 74.3459171 -2.5100214 10.1757547 8.6758497
2.0821242 -0.2349606 0.7931920 0.041425 -0.282689 0.004712 22.4974271 3.2919178 9.7383482 69.5351546 2.4380443 19.1166463 9.6839994
2.0311146 -0.1821271 0.8637731 0.077061 -0.255907 0.007379 13.0487616 4.1347063 8.7331076 62.2851780 7.2486796 26.3077054 11.2152818
1.9638595 -0.1308601 0.9206317 0.108701 -0.221637 0.008778 5.4724832 2.9056792 5.1451596 53.8100342 11.6375811 31.5129880 13.0089272
1.8844518 -0.0824833 0.9635011 0.135928 -0.183802 0.008097 0.8818929 0.7154588 1.1170970 45.0572279 15.4637367 34.9054894 14.8423334
1.7961776 -0.0378004 0.9934113 0.158428 -0.145626 0.005456 -1.1739597 -1.3983342 -1.9714496 36.8830513 18.6768899 36.8411547 16.6222961
1.7012993 0.0027109 1.0121363 0.176638 -0.109666 0.001150 -1.6952939 -2.9212241 -3.7754569 29.5434218 21.3914693 37.7896502 18.2427995
1.6011083 0.0387387 1.0217711 0.190371 -0.077306 -0.004099 -1.5123558 -3.7780176 -4.5326054 23.2448706 23.6356209 38.0926497 19.6926268
2.1013403 -0.1940998 0.7071834 0.075091 -0.292437 0.003135 24.5861953 6.2054916 5.1163490 71.4533893 6.1673155 9.4643636 9.3777597
2.0609557 -0.1454477 0.7843751 0.108374 -0.270290 0.006424 15.5412757 6.3333040 6.5830402 65.5076472 10.5316466 17.6067328 10.6382005
2.0018911 -0.0980188 0.8494966 0.137626 -0.239314 0.008687 7.0988415 4.2658456 4.6895292 57.6849557 14.5614959 23.9796484 12.4106210
1.9282881 -0.0530596 0.9011315 0.162253 -0.203082 0.008962 1.5095385 1.2857814 1.4127354 49.1562180 18.0743825 28.5404197 14.1769997
1.8438502 -0.0113448 0.9394627 0.182397 -0.165349 0.007113 -1.2874994 -1.5286186 -1.6374323 40.7761016 21.0723252 31.5018613 16.0850859
1.7514187 0.0266535 0.9657745 0.198339 -0.128723 0.003304 -2.0945891 -3.4526872 -3.5647390 33.1235988 23.5959403 33.2920561 17.6830895
1.6528751 0.0606199 0.9819607 0.210306 -0.095225 -0.001680 -1.9809187 -4.5585491 -4.5195760 26.3759191 25.6933117 34.2293542 19.3118429
2.0688638 -0.1065886 0.7019563 0.139488 -0.272831 0.003728 14.6905392 7.5162335 3.0234353 65.8647459 13.9222566 8.6188027 10.7925218
2.0206672 -0.0634359 0.7732805 0.166309 -0.246974 0.006870 7.2000051 4.9480912 3.0425904 59.3479330 17.5143211 15.8403314 12.2880842
1.9556671 -0.0223054 0.8326213 0.188636 -0.214673 0.008255 1.5567455 1.4233570 1.0345728 51.5701053 20.7281851 21.4382977 14.0085118
1.8775917 0.0160978 0.8790708 0.206383 -0.179156 0.007490 -1.5121565 -1.8389000 -1.4356658 43.5494638 23.4602352 25.4392175 15.7765160
1.7896870 0.0513056 0.9131224 0.220181 -0.143556 0.004577 -2.5564413 -4.1568571 -3.3275174 35.8604625 25.7579312 28.1090605 17.4762174
1.6944125 0.0829774 0.9362353 0.230139 -0.110044 0.000194 -2.4689439 -5.4204375 -4.3430045 28.9815807 27.6738006 29.7582835 19.0402842
2.0189837 -0.0284856 0.6958367 0.192824 -0.244309 0.003659 5.4085626 4.3061481 1.1208680 58.5654634 20.3896870 7.6782697 12.6330123
1.9650708 0.0085856 0.7609000 0.212965 -0.217410 0.006038 0.8226031 0.8244673 0.3528928 52.1330340 23.1959385 14.0508014 14.0114284
1.8958852 0.0434909 0.8143854 0.228787 -0.186081 0.006517 -2.0066753 -2.5614033 -1.3646702 44.9228432 25.6562761 18.9403607 15.7196109
1.8147094 0.0757986 0.8557401 0.240573 -0.153044 0.004764 -3.0286684 -4.9897134 -2.9665845 37.6929352 27.7310847 22.4658391 17.2564427
1.7244587 0.1051177 0.8857123 0.248931 -0.120968 0.001307 -2.9535263 -6.3713531 -4.0012217 30.9075173 29.5057152 24.8556283 18.8714841
1.9559516 0.0386444 0.6893268 0.234112 -0.211846 0.003039 -0.6583055 -0.7385359 -0.1396072 50.7111436 25.5099813 6.7444784 14.5900870
1.8979387 0.0699122 0.7480450 0.248347 -0.185992 0.004557 -2.7376190 -3.7527667 -1.2107523 44.7558906 27.6623211 12.2734180 15.9792843
1.8256635 0.0992749 0.7956799 0.258871 -0.157121 0.003991 -3.5289438 -6.0338487 -2.4923070 38.2983308 29.5698959 16.5594677 17.4321801
1.7421945 0.1263007 0.8319692 0.265811 -0.127614 0.001559 -3.3683960 -7.3253428 -3.4520878 32.0080631 31.1856494 19.6797210 18.8856537
1.8835888 0.0948152 0.6827974 0.264277 -0.179340 0.002063 -3.4600927 -5.2107386 -0.7614608 43.1454426 29.4443792 5.9054672 16.4612057
1.8223629 0.1210774 0.7352034 0.273742 -0.155500 0.002558 -3.9274413 -7.1261552 -1.8134754 37.8788914 31.1079671 10.7372142 17.6142191
1.7473989 0.1458561 0.7768821 0.280016 -0.129739 0.001263 -3.6931314 -8.2831250 -2.7383315 32.2425082 32.5955049 14.4234033 19.0169812
1.8049290 0.1409704 0.6764485 0.285168 -0.149314 0.001088 -4.1609652 -8.1913460 -0.9589425 36.2781249 32.5087662 5.0970346 18.2038227
1.7404856 0.1632941 0.7223738 0.291069 -0.127715 0.000693 -3.9169195 -9.2489162 -1.9010145 31.5663876 33.6266317 9.2092942 19.3200182
1.7221638 0.1784649 0.6701546 0.298423 -0.122863 -0.000088 -3.4214412 -8.6779119 -0.8273377 30.6634981 35.5781773 4.5452303 19.6903329
1.6915831 0.1921498 0.6212299 0.303663 -0.112066 -0.000000 -4.5727749 -12.8162503 0.0000000 27.5180959 33.3419292 -0.0000001 20.2617828
1.7726970 0.1594757 0.6212299 0.293093 -0.137988 -0.000000 -3.8947769 -8.5309484 -0.0000000 33.8195379 33.6555163 0.0000001 18.7264994
1.8527879 0.1182620 0.6212299 0.276345 -0.166719 -0.000000 -4.0191276 -6.8176681 -0.0000000 40.2804838 31.0110744 0.0000001 17.2401348
1.9285587 0.0673795 0.6212299 0.251164 -0.198653 -0.000000 -2.2203360 -2.8504987 -0.0000000 47.6332699 27.6033012 0.0000001 15.3127100
1.9969904 0.0057479 0.6212299 0.215569 -0.231973 -0.000000 2.3975457 2.2456922 0.0000000 55.5692443 23.0761464 0.0000001 13.4299336
2.0544342 -0.0671664 0.6212299 0.168078 -0.263537 -0.000000 10.7455121 6.8511109 -0.0000000 63.3978570 17.2255677 -0.0000000 11.3951634
2.0966397 -0.1506684 0.6212299 0.108559 -0.288790 -0.000000 21.5085999 7.9764435 -0.0000000 70.1361159 10.0539552 -0.0000001 9.7734126
2.1193120 -0.2421614 0.6212299 0.039265 -0.302382 -0.000000 30.6509390 3.7186731 -0.0000001 74.6199224 1.7346894 -0.0000002 8.5656513
2.1192714 -0.3369410 0.6212299 -0.034598 -0.300430 -0.000000 33.0228362 -4.1824532 -0.0000001 75.9377029 -7.3274016 -0.0000002 8.3933092
2.0957357 -0.4289398 0.6212299 -0.106100 -0.281973 -0.000000 27.3426260 -10.6898755 -0.0000001 73.6284589 -16.7614135 -0.0000001 9.0110465
2.0508328 -0.5123171 0.6212299 -0.168942 -0.249951 -0.000000 17.0671628 -11.8554367 -0.0000001 67.6859764 -25.8107587 -0.0000002 10.5284347
1.9889097 -0.5829872 0.6212299 -0.219289 -0.209475 -0.000000 7.5099654 -8.0456698 -0.0000000 58.9257662 -33.5298127 -0.0000000 12.3238590
1.9151671 -0.6391884 0.6212299 -0.256814 -0.166351 -0.000000 1.3700126 -2.1603011 -0.0000000 48.9044913 -39.1507074 -0.0000001 14.3451946
1.8345547 -0.6811154 0.6212299 -0.282606 -0.124612 -0.000000 -1.3179036 3.0515892 -0.0000000 38.9349408 -42.6917981 0.0000001 16.0445521
1.7518891 -0.7100191 0.6212299 -0.299665 -0.086157 -0.000000 -2.1131706 7.5107868 -0.0000000 30.0713224 -45.1571914 0.0000002 17.7730964
1.6935248 -0.7198946 0.5547037 -0.303576 -0.065121 0.001995 -2.0543002 9.8179950 1.1896391 24.4936930 -44.5308397 -6.4964892 18.6514780
1.7088334 -0.7023510 0.4833434 -0.292279 -0.072924 0.004042 -1.6702326 6.9243004 1.9252848 26.4009967 -43.4695990 -14.4624781 18.1684934
1.7145972 -0.6744006 0.4107126 -0.274025 -0.078252 0.005821 -1.4816988 5.4527389 2.4976636 27.2070936 -40.8203168 -22.2443558 17.9759887
1.7091164 -0.6365816 0.3405588 -0.249574 -0.080325 0.006587 -1.2047720 4.0082698 2.7043686 27.2629674 -37.1097697 -29.6585626 17.6645619
1.6917159 -0.5901119 0.2759255 -0.219216 -0.078123 0.006301 -0.9311479 2.8427561 2.6913573 26.2366223 -32.4925941 -36.2220637 17.7103636
1.6625457 -0.5368696 0.2193105 -0.184689 -0.071338 0.005067 -0.6689531 1.8942218 2.4770311 24.4233178 -27.3433905 -41.7008670 17.7330797
1.6224151 -0.4791134 0.1724193 -0.147604 -0.060128 0.003353 -0.4895104 1.2917385 2.3545824 21.8990373 -21.9321474 -45.9171874 18.1057558
1.5725706 -0.4191888 0.1360699 -0.110026 -0.045354 0.001763 -0.3572214 0.8736350 2.3050836 19.0017642 -16.5679837 -48.8956960 18.4395502
1.5144575 -0.3592644 0.1102427 -0.073217 -0.028252 0.000911 -0.2601418 0.5730221 2.3854793 15.8790400 -11.5024494 -50.8236842 19.1062535
1.4495235 -0.3011650 0.0942418 -0.038920 -0.010384 0.001084 -0.1709994 0.3054246 2.4795988 12.8468035 -6.7961055 -51.8685126 19.6131747
1.3790976 -0.2462997 0.0869099 -0.007837 0.006960 0.002334 -0.0899649 0.0594381 2.6424594 9.9404994 -2.5821802 -52.2565712 20.3954686
1.3043513 -0.1956661 0.0868263 0.019160 0.022650 0.004443 -0.0105737 -0.1756973 2.7011534 7.3327890 1.1445261 -52.2129971 20.9487170
1.2263547 -0.1499098 0.0924724 0.041860 0.035972 0.007075 0.0631576 -0.4125382 2.9188948 5.0109511 4.3659606 -51.7951805 21.7040134
1.1462034 -0.1093956 0.1023308 0.060006 0.046511 0.010190 0.1069389 -0.5178843 2.5010755 3.0780475 7.1435102 -51.5288101 22.1503559
1.0657965 -0.0744948 0.1148220 0.074030 0.054332 0.012872 0.2299691 -1.0096452 3.8172633 1.2683356 9.6111751 -51.7574563 22.8465946
1.7221638 0.1784649 0.5723052 0.298423 -0.122863 0.000088 -3.4214409 -8.6779110 0.8273376 30.6634981 35.5781782 -4.5452303 19.6903329
1.7404856 0.1632941 0.5200859 0.291069 -0.127715 -0.000693 -3.9169196 -9.2489164 1.9010145 31.5663876 33.6266316 -9.2092940 19.3200183
1.7473989 0.1458561 0.4655777 0.280016 -0.129739 -0.001263 -3.6931310 -8.2831241 2.7383312 32.2425086 32.5955059 -14.4234032 19.0169812
1.7421945 0.1263007 0.4104905 0.265811 -0.127614 -0.001560 -3.3683960 -7.3253428 3.4520878 32.0080631 31.1856498 -19.6797206 18.8856538
1.7244587 0.1051177 0.3567475 0.248931 -0.120968 -0.001307 -2.9535267 -6.3713538 4.0012221 30.9075170 29.5057149 -24.8556275 18.8714841
1.6944125 0.0829774 0.3062245 0.230139 -0.110044 -0.000194 -2.4689439 -5.4204376 4.3430045 28.9815807 27.6738012 -29.7582830 19.0402844
1.6528751 0.0606199 0.2604991 0.210306 -0.095225 0.001680 -1.9809184 -4.5585484 4.5195751 26.3759193 25.6933130 -34.2293546 19.3118430
1.6011083 0.0387387 0.2206886 0.190371 -0.077306 0.004099 -1.5123561 -3.7780183 4.5326062 23.2448704 23.6356209 -38.0926485 19.6926270
1.5406095 0.0178885 0.1874013 0.170924 -0.057258 0.006758 -1.0933459 -3.0987607 4.4259665 19.8461500 21.5268929 -41.3949833 20.1422908
1.4729177 -0.0015632 0.1607837 0.152474 -0.036299 0.009242 -0.7248962 -2.4780700 4.1666802 16.3279084 19.4767764 -44.0752860 20.6212698
1.3994743 -0.0194363 0.1406285 0.135016 -0.015260 0.011352 -0.4379300 -1.9931721 3.9197453 12.8931598 17.3675056 -46.2222571 21.1030453
1.3215378 -0.0356987 0.1264924 0.118648 0.004815 0.012767 -0.2075513 -1.5468100 3.5521129 9.6096649 15.3551017 -47.9172971 21.5773103
1.2401066 -0.0504085 0.1178097 0.103065 0.023453 0.013283 -0.0444301 -1.2895396 3.4702786 6.5912166 13.2133311 -48.9666484 22.0291690
1.1556113 -0.0635451 0.1140048 0.088213 0.039969 0.012962 0.0767592 -0.9172975 2.9185818 3.8647670 11.3303473 -50.1472716 22.4128453
1.8049290 0.1409704 0.5660113 0.285168 -0.149314 -0.001088 -4.1609653 -8.1913463 0.9589425 36.2781250 32.5087659 -5.0970344 18.2038228
1.8223629 0.1210774 0.5072563 0.273742 -0.155500 -0.002558 -3.9274401 -7.1261531 1.8134748 37.8788927 31.1079693 -10.7372145 17.6142190
1.8256635 0.0992749 0.4467798 0.258871 -0.157121 -0.003991 -3.5289431 -6.0338475 2.4923064 38.2983317 29.5698973 -16.5594680 17.4321802
1.8147094 0.0757986 0.3867196 0.240573 -0.153044 -0.004764 -3.0286690 -4.9897145 2.9665852 37.6929346 27.7310838 -22.4658382 17.2564427
1.7896870 0.0513056 0.3293374 0.220181 -0.143556 -0.004577 -2.5564414 -4.1568573 3.3275175 35.8604624 25.7579313 -28.1090602 17.4762175
1.7514187 0.0266535 0.2766853 0.198339 -0.128723 -0.003304 -2.0945889 -3.4526871 3.5647387 33.1235991 23.5959409 -33.2920560 17.6830895
1.7012993 0.0027109 0.2303235 0.176638 -0.109666 -0.001150 -1.6952943 -2.9212249 3.7754578 29.5434212 21.3914690 -37.7896492 18.2427997
1.6410643 -0.0197942 0.1911856 0.155594 -0.087347 0.001543 -1.2939822 -2.4181239 3.8293422 25.5732377 19.1505994 -41.5705580 18.6976100
1.5725178 -0.0403641 0.1596010 0.136148 -0.063349 0.004324 -0.9406011 -1.9986171 3.8206867 21.3404767 16.9792471 -44.5901374 19.4042506
1.4973046 -0.0587455 0.1354186 0.118182 -0.038726 0.006839 -0.6187823 -1.6006481 3.6601513 17.1906184 14.8208742 -46.9284547 19.9307560
1.4167399 -0.0748834 0.1181775 0.101930 -0.014833 0.008727 -0.3600296 -1.2765554 3.4800177 13.1627436 12.8041497 -48.6554815 20.6503271
1.3316410 -0.0888204 0.1072677 0.086804 0.007777 0.009891 -0.1504731 -0.9768339 3.1841681 9.5001305 10.7970609 -49.9196259 21.1041092
1.2420072 -0.1005070 0.1021005 0.072996 0.028267 0.010315 0.0032248 -0.7311622 2.8788267 6.0719860 8.9544731 -50.9024580 21.7854760
1.8835888 0.0948152 0.5596624 0.264277 -0.179340 -0.002063 -3.4600924 -5.2107382 0.7614608 43.1454428 29.4443796 -5.9054670 16.4612057
1.8979387 0.0699122 0.4944147 0.248347 -0.185992 -0.004557 -2.7376201 -3.7527682 1.2107528 44.7558895 27.6623195 -12.2734172 15.9792843
1.8958852 0.0434909 0.4280743 0.228787 -0.186081 -0.006517 -2.0066748 -2.5614026 1.3646698 44.9228438 25.6562769 -18.9403608 15.7196108
1.8775917 0.0160978 0.3633890 0.206383 -0.179156 -0.007490 -1.5121565 -1.8389001 1.4356659 43.5494639 23.4602355 -25.4392173 15.7765162
1.8438502 -0.0113448 0.3029970 0.182397 -0.165349 -0.007113 -1.2875000 -1.5286193 1.6374330 40.7761010 21.0723247 -31.5018605 16.0850860
1.7961776 -0.0378004 0.2490485 0.158428 -0.145626 -0.005456 -1.1739603 -1.3983349 1.9714505 36.8830510 18.6768898 -36.8411537 16.6222963
1.7365932 -0.0623500 0.2029518 0.135589 -0.121300 -0.002916 -1.0902329 -1.3443901 2.4257706 32.2336514 16.2516275 -41.2970659 17.2937074
1.6672696 -0.0843379 0.1653300 0.114806 -0.094173 -0.000019 -0.9307384 -1.2346595 2.7980666 27.2041903 13.9438197 -44.7999134 18.0687772
1.5902032 -0.1034173 0.1361541 0.096323 -0.065834 0.002743 -0.7209305 -1.0829888 3.0482679 22.1459318 11.7435595 -47.4495025 18.8576085
1.5069750 -0.1194993 0.1149572 0.080082 -0.037728 0.004992 -0.4810931 -0.8861992 3.0863899 17.2956825 9.7024883 -49.3313840 19.6271253
1.4185817 -0.1326397 0.1010586 0.065823 -0.010859 0.006528 -0.2658854 -0.7027714 3.0426497 12.7615737 7.7678397 -50.6164663 20.3842921
1.3252695 -0.1428616 0.0937519 0.053113 0.013829 0.007218 -0.0826611 -0.5267998 2.8776630 8.6856491 6.0249510 -51.4238143 21.0567763
1.9559516 0.0386444 0.5531329 0.234112 -0.211846 -0.003039 -0.6583038 -0.7385339 0.1396069 50.7111456 25.5099833 -6.7444785 14.5900870
1.9650708 0.0085856 0.4815598 0.212965 -0.217410 -0.006038 0.8226035 0.8244678 -0.3528929 52.1330345 23.1959389 -14.0508015 14.0114284
1.9556671 -0.0223054 0.4098385 0.188636 -0.214673 -0.008255 1.5567437 1.4233554 -1.0345716 51.5701035 20.7281834 -21.4382964 14.0085119
1.9282881 -0.0530596 0.3413283 0.162253 -0.203082 -0.008962 1.5095373 1.2857804 -1.4127343 49.1562168 18.0743815 -28.5404185 14.1769997
1.8844518 -0.0824833 0.2789586 0.135928 -0.183802 -0.008097 0.8818934 0.7154592 -1.1170976 45.0572283 15.4637373 -34.9054902 14.8423335
1.8264495 -0.1094559 0.2248200 0.110918 -0.158018 -0.006010 0.1868739 0.1479613 -0.3165822 39.8343867 12.8353308 -40.2623036 15.5598010
1.7569050 -0.1331514 0.1800082 0.088674 -0.128157 -0.003251 -0.3396106 -0.2699163 0.7749897 33.9050596 10.3976987 -44.4379042 16.5848057
1.6783185 -0.1531207 0.1447281 0.069415 -0.096017 -0.000432 -0.5194954 -0.4292116 1.6390314 27.8898249 8.1118225 -47.5601356 17.4607310
1.5927300 -0.1692506 0.1185602 0.053366 -0.063712 0.001973 -0.5028229 -0.4537166 2.3121378 21.9953311 6.0837176 -49.6901996 18.5348770
1.5015375 -0.1816391 0.1007447 0.039819 -0.032478 0.003638 -0.3479581 -0.3737308 2.5911123 16.5964851 4.2446768 -51.0629296 19.3333071
1.4054200 -0.1904351 0.0904291 0.028632 -0.003479 0.004469 -0.1752316 -0.2782349 2.7434479 11.6697156 2.6263828 -51.8400206 20.2822631
2.0189837 -0.0284856 0.5466230 0.192824 -0.244309 -0.003659 5.4085602 4.3061462 -1.1208675 58.5654608 20.3896849 -7.6782688 12.6330123
2.0206672 -0.0634359 0.4691792 0.166309 -0.246974 -0.006870 7.2000027 4.9480895 -3.0425894 59.3479306 17.5143195 -15.8403303 12.2880843
2.0018911 -0.0980188 0.3929631 0.137626 -0.239314 -0.008687 7.0988410 4.2658454 -4.6895289 57.6849552 14.5614956 -23.9796481 12.4106211
1.9638595 -0.1308601 0.3218280 0.108701 -0.221637 -0.008778 5.4724846 2.9056800 -5.1451609 53.8100359 11.6375821 -31.5129894 13.0089274
1.9089737 -0.1606251 0.2587907 0.081576 -0.195511 -0.007291 3.2442919 1.5329622 -4.1816303 48.1359859 8.7777460 -37.9895408 13.9138064
1.8403053 -0.1863089 0.2056676 0.057742 -0.163459 -0.004855 1.3802308 0.5813361 -2.4178994 41.4113864 6.1764028 -43.1343652 15.0237376
1.7609610 -0.2073668 0.1630939 0.037891 -0.128061 -0.002162 0.2256153 0.0839144 -0.5440023 34.2876397 3.8385461 -46.9473570 16.2116446