# volRat = 0.650000
# viscRat = 5.000000
# alpha = 0.500000
# shRate = 3.182000
# tnum = 500
# time = 0.375000
VARIABLES = X, Y, Z, U, V, W, F_B0, F_B1, F_B2, F_0, F_1, F_2, T
ZONE N=2562 E=5120 F=FEPOINT ET=TRIANGLE
1.6063913 0.2740237 0.6212299 0.291312 -0.298391 -0.000000 5.1499174 19.1811394 0.0000042 27.5935095 54.6592598 0.0000006 22.4145025
-1.7214589 0.6699270 0.6212299 0.340447 0.284757 -0.000000 -2.8328916 10.6237860 0.0000024 -29.2847067 50.7543335 0.0000002 19.4439039
1.7214589 -0.6699270 0.6212299 -0.340447 -0.284757 -0.000000 2.8328918 -10.6237868 0.0000023 29.2847068 -50.7543345 0.0000003 19.4439040
-1.6063913 -0.2740237 0.6212299 -0.291312 0.298391 -0.000000 -5.1499181 -19.1811421 0.0000042 -27.5935096 -54.6592627 0.0000009 22.4145027
1.0073441 -0.0066495 1.1165038 0.058999 -0.082068 -0.011443 -3.2990025 11.7091061 36.3109913 -3.3064694 21.5256766 79.1795265 24.2601110
1.0073441 -0.0066495 0.1259559 0.058999 -0.082068 0.011442 -3.2989822 11.7091248 -36.3109003 -3.3064478 21.5256782 -79.1794369 24.2601075
-1.0073441 0.0066495 1.1165038 -0.058999 0.082068 -0.011443 3.2990024 -11.7091056 36.3109902 3.3064696 -21.5256753 79.1795256 24.2601109
-1.0073441 0.0066495 0.1259559 -0.058999 0.082068 0.011442 3.2989822 -11.7091245 -36.3108999 3.3064481 -21.5256774 -79.1794366 24.2601074
-0.0102090 0.3353370 0.8291834 0.188446 -0.018984 0.007129 -15.1044109 -93.5460253 -54.0883832 -5.6888487 -32.6972372 -14.9958922 26.9125822
0.0102090 -0.3353370 0.8291834 -0.188446 0.018983 0.007129 15.1045248 93.5467246 -54.0883984 5.6889582 32.6978954 -14.9959528 26.9125848
-0.0102090 0.3353370 0.4132763 0.188446 -0.018984 -0.007128 -15.1041007 -93.5440403 54.0870342 -5.6885330 -32.6952832 14.9945516 26.9126204
0.0102090 -0.3353370 0.4132763 -0.188446 0.018984 -0.007128 15.1041999 93.5446152 54.0874124 5.6886286 32.6958512 14.9949109 26.9126212
1.6243725 0.2682858 0.6598199 0.290509 -0.304092 -0.001395 -4.2112327 -14.8755862 -0.9762483 24.3288386 37.7126216 3.2018014 22.3335702
1.6380712 0.2598415 0.7021492 0.286594 -0.308495 -0.002741 -2.7959888 -9.3702789 -1.3967114 26.4639017 40.9878667 7.8473030 21.9471862
1.6454644 0.2489201 0.7472226 0.280256 -0.310411 -0.004017 -2.6413160 -8.5124811 -2.0410287 26.9832941 40.3950775 12.3565844 21.8840978
1.6450144 0.2356759 0.7938020 0.271047 -0.309232 -0.005389 -2.6305439 -8.2856441 -2.8129762 26.9350344 38.9199523 16.9150501 21.6083410
1.6356564 0.2202433 0.8408103 0.259425 -0.304644 -0.006971 -2.3914852 -7.5052283 -3.3696106 26.3842918 37.7812607 21.6825428 21.6720873
1.6167300 0.2028176 0.8870564 0.245178 -0.296203 -0.008914 -2.0947387 -6.7013827 -3.8127971 25.2784269 36.2546342 26.3997783 21.5815161
1.5880014 0.1836609 0.9313094 0.228953 -0.283939 -0.011180 -1.7561499 -5.8862272 -4.1223365 23.5096500 34.5292113 30.9227912 21.8037847
1.5496546 0.1630947 0.9723921 0.210877 -0.267840 -0.013738 -1.3809224 -5.0168478 -4.2360859 21.2905609 32.5691626 35.2063627 21.8801762
1.5022361 0.1414815 1.0092827 0.191751 -0.248442 -0.016264 -1.0269630 -4.2284526 -4.2412465 18.5871979 30.4557454 39.0488881 22.2575696
1.4465671 0.1192066 1.0411895 0.171814 -0.226169 -0.018537 -0.6992106 -3.4803765 -4.1046182 15.6653779 28.1322782 42.4595089 22.4328514
1.3836495 0.0966617 1.0675863 0.151811 -0.201920 -0.020118 -0.4233531 -2.8398333 -3.9135502 12.5334098 25.7278839 45.3685532 22.8918878
1.3145942 0.0742338 1.0882174 0.131818 -0.176487 -0.020701 -0.1976528 -2.2729632 -3.6511751 9.4514430 23.1865743 47.7781645 23.1083106
1.2406201 0.0523017 1.1030800 0.112398 -0.150826 -0.020066 -0.0247240 -1.8053884 -3.3851461 6.4054222 20.6390524 49.7525153 23.5674718
1.1631227 0.0312300 1.1124181 0.093520 -0.125775 -0.018168 0.1494439 -2.0626965 -4.5380585 3.6931985 17.3634073 49.9051719 23.7569189
1.0843750 0.0114736 1.1166939 0.075786 -0.102606 -0.015164 0.4578460 -2.5986593 -6.8019374 1.1803441 14.5544850 50.0727646 24.1838863
1.8398083 -0.6224594 0.7048880 -0.306327 -0.345171 -0.004605 -1.1157204 2.3610736 -0.4302873 41.9364552 -43.9663118 9.7378986 17.2656778
1.8537818 -0.5911950 0.7891610 -0.284123 -0.356473 -0.007861 -0.5431118 0.9985678 -0.4022819 43.8514940 -40.7189610 19.4540102 16.8364171
1.8520029 -0.5488552 0.8704706 -0.254948 -0.360909 -0.010390 0.1470690 -0.2370914 0.1608407 44.0917067 -36.0047316 28.9314750 16.5148655
1.8346300 -0.4972100 0.9447529 -0.219660 -0.357627 -0.011660 0.5462290 -0.7700359 0.8041859 42.5172597 -30.3751130 37.2207961 16.5418850
1.8026194 -0.4391521 1.0087755 -0.180813 -0.346832 -0.011898 0.5764301 -0.6991484 1.0997140 39.5471480 -24.1161730 43.9886749 16.7885411
1.7578281 -0.3780063 1.0606326 -0.140571 -0.329147 -0.011672 0.3597390 -0.3609852 0.8786315 35.4694806 -17.7892786 49.0594760 17.3440836
1.7025952 -0.3169118 1.0998669 -0.101416 -0.306269 -0.011533 0.0561952 -0.0426125 0.1765256 30.7662571 -11.6912250 52.4659703 18.0484446
1.6392899 -0.2583892 1.1272087 -0.064947 -0.279970 -0.011848 -0.1533114 0.0676244 -0.6315550 25.9209415 -6.1422439 54.5197137 18.8941239
1.5699860 -0.2041536 1.1441255 -0.032345 -0.252172 -0.012658 -0.2561481 -0.0044394 -1.4367909 21.1881999 -1.1995743 55.4709622 19.7686804
1.4963097 -0.1551388 1.1523870 -0.004025 -0.224109 -0.013785 -0.2456458 -0.1916270 -2.0071693 16.7612653 2.9920503 55.6693252 20.6676959
1.4194162 -0.1116481 1.1537321 0.019761 -0.196964 -0.014901 -0.1788626 -0.4231753 -2.4320404 12.7821849 6.5915979 55.3344470 21.4903277
1.3400329 -0.0735586 1.1496947 0.039359 -0.171115 -0.015764 -0.0815884 -0.6385961 -2.6474342 9.2468394 9.5389797 54.6926260 22.2735176
1.2584789 -0.0405179 1.1415373 0.055096 -0.146958 -0.016147 0.0174695 -0.8170542 -2.7355396 6.1398448 11.9984163 53.9305959 22.9924615
1.1743951 -0.0121821 1.1302879 0.067275 -0.124363 -0.015953 0.0709341 -0.6379409 -1.8384356 3.4533276 14.1764707 53.7339750 23.5995272
1.9260176 -0.5715693 0.7107773 -0.270078 -0.396021 -0.004018 1.8166765 -2.5569428 0.5867112 52.7004919 -39.0813371 10.6246781 15.3112131
1.9359200 -0.5315846 0.7993031 -0.241588 -0.406506 -0.007230 3.3001820 -3.9569638 2.0553607 54.2823360 -34.5201052 21.2694027 14.7076123
1.9267531 -0.4818268 0.8821790 -0.206531 -0.407027 -0.008750 3.8654878 -3.9304325 3.5742171 53.3475472 -28.9788964 30.8556228 14.7141781
1.9000235 -0.4247356 0.9554056 -0.167368 -0.398304 -0.009159 3.5320761 -2.9664249 4.4195061 50.3964847 -22.6564118 38.9832701 14.9048329
1.8580059 -0.3636464 1.0162835 -0.126281 -0.380788 -0.008972 2.4810486 -1.6171068 4.0379509 45.7306100 -16.1867945 45.2231898 15.6191372
1.8035773 -0.3019364 1.0637425 -0.086194 -0.356633 -0.008815 1.3388198 -0.5820399 2.7935752 40.2328872 -9.8698698 49.5908835 16.3961367
1.7396954 -0.2424248 1.0981868 -0.048617 -0.327918 -0.009363 0.4115047 -0.0677398 1.1023843 34.3145013 -4.0879151 52.3269966 17.5165228
1.6689570 -0.1870947 1.1210280 -0.015097 -0.297033 -0.010623 -0.1125466 -0.0221917 -0.3928990 28.5452416 1.0314829 53.7644367 18.4946323
1.5933576 -0.1370736 1.1341471 0.013953 -0.265636 -0.012468 -0.3417116 -0.2470510 -1.6028621 23.1078375 5.4021334 54.2480949 19.6573659
1.5142281 -0.0927758 1.1394718 0.038180 -0.235033 -0.014464 -0.3486291 -0.5490095 -2.3214196 18.2371605 9.1025511 54.0929005 20.5542337
1.4322431 -0.0541151 1.1387121 0.058128 -0.205656 -0.016342 -0.2653852 -0.8536039 -2.7839421 13.8310732 12.0942230 53.5693609 21.6119984
1.3473815 -0.0207360 1.1332611 0.073696 -0.177940 -0.017681 -0.1368427 -1.0615611 -2.8981102 10.0453313 14.5886307 52.8308444 22.3117410
1.2586428 0.0077208 1.1242033 0.085630 -0.151507 -0.018368 -0.0146570 -1.2707278 -3.0537404 6.6361077 16.4886740 51.9388751 23.2169090
2.0010388 -0.5055222 0.7144813 -0.221540 -0.444969 -0.003459 8.4283357 -7.8189912 2.3535644 62.9577344 -31.7872752 11.3482349 13.1990848
2.0036035 -0.4580486 0.8049245 -0.187008 -0.451405 -0.005092 9.9310490 -7.5258287 5.3966479 63.3747808 -26.4431916 22.1040126 12.9327339
1.9850170 -0.4027567 0.8873288 -0.147752 -0.446162 -0.005669 9.2949336 -5.5446906 7.5583052 60.9340839 -20.2924444 31.6647090 13.1007339
1.9479434 -0.3427490 0.9578870 -0.106606 -0.430016 -0.005226 7.0037571 -2.9952639 7.7563174 56.2238187 -13.9083599 39.2896428 13.8192123
1.8958305 -0.2814594 1.0146292 -0.066139 -0.405497 -0.004970 4.2404783 -1.0005431 6.1387666 50.0572751 -7.5235681 44.9451557 14.8229288
1.8323276 -0.2218998 1.0573947 -0.028301 -0.374950 -0.005510 1.9353229 -0.0062998 3.6042193 43.1989131 -1.6688911 48.6805743 16.0616518
1.7606884 -0.1662668 1.0873644 0.005442 -0.341402 -0.007047 0.4550811 0.1347199 1.0899303 36.3438939 3.5748592 50.8454181 17.3316032
1.6834204 -0.1158725 1.1064429 0.034520 -0.306850 -0.009458 -0.2806983 -0.1975717 -0.8758688 29.8647584 8.0246296 51.8240098 18.6180437
1.6021734 -0.0712675 1.1167176 0.058823 -0.272918 -0.012318 -0.5210900 -0.6771634 -2.1793867 23.9532986 11.7651946 52.0210389 19.8095232
1.5177555 -0.0324513 1.1201061 0.078431 -0.240267 -0.015167 -0.4881455 -1.1033168 -2.8830283 18.7348985 14.7992651 51.7188230 20.9017245
1.4301492 0.0008863 1.1181866 0.093790 -0.209259 -0.017579 -0.3503538 -1.4323054 -3.2291198 14.0900883 17.2803229 51.1249367 21.8976135
1.3384339 0.0291044 1.1121878 0.105076 -0.179533 -0.019316 -0.1835992 -1.6533904 -3.3464608 10.0249265 19.1631067 50.4088866 22.7842718
2.0599025 -0.4253064 0.7160954 -0.160337 -0.486281 -0.001923 17.7315726 -10.0859047 4.4121214 71.1068055 -22.7461904 11.4966422 11.3847020
2.0525469 -0.3726328 0.8060508 -0.121564 -0.486277 -0.002397 17.6896656 -7.4180844 8.6511523 69.9031775 -16.9817932 22.1756707 11.3413896
2.0232740 -0.3148011 0.8858888 -0.080881 -0.473234 -0.001627 14.1862305 -3.7710766 10.4669997 65.7245317 -10.8643707 31.2159383 12.0926289
1.9758269 -0.2551249 0.9523726 -0.040854 -0.449715 -0.000996 9.2929134 -0.8769115 9.4022476 59.4185163 -4.6592722 38.3262068 13.1062666
1.9144787 -0.1966644 1.0044098 -0.003675 -0.418453 -0.001191 4.7941733 0.5272714 6.3775760 51.9520731 1.0991191 43.3349239 14.5902872
1.8432084 -0.1417401 1.0426618 0.029361 -0.383069 -0.002672 1.7383847 0.6369313 2.9898599 44.1847041 6.3350387 46.5023821 15.9842760
1.7651655 -0.0918069 1.0688610 0.057790 -0.345980 -0.005449 0.0503804 0.0354332 0.1119420 36.7028994 10.7637240 48.2772930 17.5570987
1.6824803 -0.0475516 1.0851581 0.081248 -0.309272 -0.008900 -0.6174795 -0.7218151 -1.7958701 29.8808238 14.5006710 49.0013084 18.8238535
1.5962790 -0.0090875 1.0936466 0.100183 -0.273780 -0.012649 -0.7542848 -1.4009299 -2.9578245 23.7509351 17.5054379 49.1046710 20.2042808
1.5067720 0.0238210 1.0961099 0.114688 -0.239915 -0.016099 -0.6151204 -1.8358030 -3.4384045 18.3795688 19.9198429 48.8191629 21.2157695
1.4133327 0.0515201 1.0939439 0.125201 -0.207586 -0.018892 -0.4128102 -2.1413300 -3.6687404 13.6321744 21.7801162 48.3265430 22.3415921
2.0978623 -0.3343763 0.7154194 -0.089314 -0.514570 -0.000318 25.9993033 -7.1714112 5.9208968 75.9059234 -12.8055408 11.2657676 10.1649915
2.0792820 -0.2797725 0.8026230 -0.049623 -0.506523 0.000808 22.5161578 -3.0367756 10.1740918 72.9899369 -7.1121416 21.3991236 10.6667545
2.0394077 -0.2229217 0.8781919 -0.010740 -0.485732 0.002024 15.7899404 0.3210510 10.8514710 67.2520097 -1.3059575 29.8737811 11.7612235
1.9827577 -0.1667817 0.9397534 0.024991 -0.455566 0.002558 8.8877661 1.8020933 8.4357100 59.7591880 4.2459432 36.2579535 13.2726289
1.9139044 -0.1136838 0.9870685 0.056668 -0.419817 0.001425 3.7411411 1.6010540 4.6996482 51.4443965 9.3395763 40.7012668 14.8980111
1.8366753 -0.0651579 1.0213942 0.083463 -0.381352 -0.001181 0.7275258 0.5218602 1.1894306 43.2563097 13.6539169 43.4359417 16.5531431
1.7537986 -0.0220008 1.0447408 0.105624 -0.342787 -0.004937 -0.6446083 -0.7117675 -1.3714834 35.5675581 17.3158010 44.9425510 18.1016131
1.6668729 0.0155561 1.0592747 0.123190 -0.305148 -0.009272 -1.0265271 -1.6914105 -2.8851899 28.7090252 20.2357142 45.6461166 19.5227620
1.5764855 0.0476504 1.0669441 0.136601 -0.269233 -0.013516 -0.9496589 -2.3434786 -3.6461594 22.5944114 22.5973220 45.7894192 20.7793977
1.4823793 0.0745896 1.0693191 0.146015 -0.234874 -0.017258 -0.6970994 -2.6855575 -3.8963371 17.2575765 24.3985265 45.6472730 21.9104562
2.1120204 -0.2384257 0.7124676 -0.014395 -0.526256 0.001360 28.5365977 -0.4720735 6.0892306 77.0147142 -2.8852035 10.6884928 9.8264274
2.0825570 -0.1854446 0.7950652 0.022789 -0.510196 0.003275 21.6339824 2.7025825 9.2418849 72.5343811 2.4299086 20.1322391 10.7179493
2.0335669 -0.1327395 0.8652926 0.056692 -0.483257 0.004643 13.1404066 3.8062422 8.6059543 65.6988240 7.6610847 27.8095238 12.2409095
1.9698111 -0.0825327 0.9216966 0.086229 -0.448924 0.004377 6.1419608 3.0148874 5.5971998 57.5003453 12.4441874 33.5332951 13.8442815
1.8956341 -0.0363461 0.9646971 0.110959 -0.410854 0.002385 1.6568735 1.2356249 2.0135882 48.9978714 16.5976858 37.4384307 15.6925038
1.8143725 0.0049613 0.9958694 0.131144 -0.371666 -0.001196 -0.5333802 -0.5758016 -0.8506894 40.8129961 20.0843605 39.9068712 17.2569541
1.7281885 0.0410535 1.0172534 0.146954 -0.333063 -0.005661 -1.3207437 -2.0255249 -2.7691503 33.3503703 22.8882606 41.3270699 18.8929366
1.6381568 0.0719601 1.0308606 0.158816 -0.295871 -0.010396 -1.3214435 -2.8870417 -3.7094442 26.6943954 25.1428327 42.0632922 20.1616819
1.5444494 0.0979149 1.0383987 0.167012 -0.260267 -0.014846 -1.0517944 -3.3608858 -4.1121638 20.8301592 26.8535241 42.3958289 21.4913395
2.1024723 -0.1439968 0.7075993 0.057535 -0.521136 0.002385 23.8890936 5.5106153 4.8777326 74.6842246 6.4892628 9.9339715 10.4344939
2.0638999 -0.0955532 0.7843720 0.089348 -0.499171 0.004659 15.6862527 5.9639462 6.4672217 69.0782780 11.2367744 18.4901778 11.7036419
2.0081500 -0.0490851 0.8488347 0.116655 -0.468550 0.005494 7.9232242 4.4518316 5.0483698 61.6275985 15.6763218 25.3546272 13.3290081
1.9396950 -0.0060191 0.9002972 0.139115 -0.432749 0.004529 2.4852566 1.9637551 2.2212045 53.3827083 19.5690165 30.4046178 15.0717423
1.8623104 0.0327838 0.9395724 0.157168 -0.394711 0.001651 -0.4646207 -0.5042616 -0.5586204 45.0825615 22.8433611 33.9166888 16.7794261
1.7787100 0.0669165 0.9683020 0.170950 -0.356390 -0.002439 -1.6083249 -2.3782296 -2.5637291 37.3677815 25.4845506 36.2055591 18.3933957
1.6905127 0.0963027 0.9883783 0.181219 -0.319035 -0.007236 -1.7458085 -3.5341453 -3.7056590 30.3162003 27.6027687 37.6595630 19.8335266
1.5983812 0.1210791 1.0015593 0.187962 -0.283020 -0.011990 -1.4472786 -4.0910956 -4.1848017 24.1143980 29.2237648 38.5266695 21.1225661
2.0721934 -0.0566616 0.7014451 0.120680 -0.502498 0.002817 15.1226689 7.2904444 3.0118611 69.6244640 14.9326324 9.0239168 11.7664387
2.0270039 -0.0144538 0.7718526 0.145877 -0.477293 0.004688 8.2060156 5.3066623 3.3278312 63.4397796 18.8956207 16.6809570 13.0720253
1.9669676 0.0249578 0.8306246 0.166272 -0.445708 0.004924 2.6962665 2.3000382 1.7039066 55.9796209 22.4350611 22.7233906 14.7647892
1.8959410 0.0607788 0.8775780 0.182148 -0.410459 0.003161 -0.5339060 -0.5970157 -0.4774557 48.1405006 25.4153042 27.2475381 16.3381558
1.8170202 0.0925769 0.9136663 0.194125 -0.374018 -0.000115 -1.9563570 -2.8706306 -2.3770701 40.4909363 27.8857351 30.4441170 18.0256027
1.7323401 0.1201902 0.9404220 0.202666 -0.337618 -0.004517 -2.1751717 -4.2227796 -3.5464220 33.4033568 29.8591156 32.6698749 19.3878590
1.6430899 0.1436471 0.9595004 0.208152 -0.302192 -0.009187 -1.8767253 -4.9053917 -4.1377960 27.0063117 31.4155270 34.1710610 20.8265757
2.0258342 0.0201344 0.6947095 0.172174 -0.475374 0.002519 6.5306768 4.9059088 1.2916731 62.7727077 22.0674619 8.0611819 13.4705182
1.9764687 0.0556304 0.7587679 0.190833 -0.449394 0.003832 2.0280744 1.9023951 0.8236683 56.6194491 25.1892127 14.8045999 14.8607634
1.9141675 0.0881913 0.8122066 0.205182 -0.418722 0.003302 -0.9486491 -1.1176404 -0.6056385 49.6182399 27.9075831 20.1749186 16.3628349
1.8420766 0.1174228 0.8550829 0.215559 -0.385415 0.001098 -2.3542635 -3.5144834 -2.1473666 42.4916537 30.1491684 24.2277553 17.8710955
1.7626890 0.1431113 0.8883116 0.222802 -0.351258 -0.002512 -2.6157149 -5.0088680 -3.2779484 35.6109490 31.9961449 27.2374813 19.3114871
1.6776999 0.1651795 0.9132430 0.227077 -0.317244 -0.006763 -2.2964818 -5.7410401 -3.9150862 29.2835233 33.4261928 29.3780525 20.6274157
1.9683212 0.0851502 0.6879929 0.211726 -0.444398 0.001895 0.5897942 0.6194622 0.1178515 55.2828202 27.7612494 7.1140635 15.2990008
1.9166850 0.1143371 0.7460730 0.224815 -0.419216 0.002352 -1.6350204 -2.0724209 -0.6765942 49.5725643 30.1241962 13.0993244 16.4647378
1.8534156 0.1408808 0.7946015 0.234238 -0.390384 0.001302 -2.8152856 -4.3725248 -1.8480069 43.2916172 32.1621811 17.8683920 17.9194370
1.7810512 0.1645767 0.8336640 0.240409 -0.359442 -0.001343 -3.0153251 -5.8349542 -2.8567042 36.9750717 33.8343902 21.5681976 19.1511258
1.7016812 0.1852560 0.8640735 0.243993 -0.327828 -0.004867 -2.6876285 -6.6056758 -3.5408811 30.8928185 35.2013750 24.3208365 20.5230698
1.9039251 0.1387549 0.6816990 0.240770 -0.412878 0.001063 -2.5036732 -3.4839362 -0.5137875 47.9696092 32.1530508 6.2677289 17.0583173
1.8511807 0.1625281 0.7343007 0.249557 -0.389312 0.000887 -3.2826345 -5.4155818 -1.4068481 42.8343886 33.9422800 11.5241520 18.1943278
1.7874488 0.1841839 0.7782036 0.255394 -0.362561 -0.000796 -3.3777990 -6.7483492 -2.3170571 37.2557489 35.4811125 15.8028258 19.3807602
1.7149535 0.2035099 0.8134293 0.258470 -0.333934 -0.003541 -3.0122339 -7.4508740 -3.0129095 31.7224398 36.7277619 19.1227567 20.5684543
1.8358665 0.1822152 0.6760107 0.261353 -0.382691 0.000247 -3.5943030 -6.4277665 -0.7691239 41.2784751 35.4851911 5.5477796 18.6285615
1.7823466 0.2016973 0.7235248 0.266910 -0.360680 -0.000681 -3.5561540 -7.4804479 -1.6011079 36.7946586 36.8903625 10.2655483 19.5245052
1.7179131 0.2196623 0.7627418 0.270117 -0.335795 -0.002608 -3.2209965 -8.1824543 -2.3389888 31.8466380 38.0266319 14.0032094 20.6886523
1.7662358 0.2171656 0.6708954 0.275538 -0.354545 -0.000463 -3.7079020 -8.3741352 -0.8364329 35.2684661 37.9511213 4.8878429 20.0462602
1.7113460 0.2335567 0.7132686 0.278829 -0.333804 -0.001847 -3.1781032 -8.4434110 -1.5155148 31.3853275 39.3709686 9.0488794 20.9438543
1.6960187 0.2452590 0.6659824 0.284734 -0.328295 -0.001149 -3.4440351 -9.7416727 -0.8209425 29.8292962 39.0077663 4.3074123 21.2457206
1.6709702 0.2555504 0.6212299 0.288321 -0.318781 -0.000000 -3.0227787 -9.3512384 0.0000000 28.6767625 41.5107892 -0.0000007 21.6953682
1.7385878 0.2311571 0.6212299 0.281020 -0.344019 -0.000000 -3.2038933 -7.9466077 0.0000000 33.3389362 39.3295795 -0.0000010 20.4246240
1.8077483 0.2001941 0.6212299 0.269757 -0.370980 -0.000000 -3.7303274 -7.3944066 0.0000000 38.7820550 36.8475833 0.0000000 19.2725171
1.8767138 0.1613156 0.6212299 0.252760 -0.400370 -0.000000 -3.1742983 -4.9506019 -0.0000000 45.1627928 33.9471441 -0.0000003 17.6521975
1.9435978 0.1129427 0.6212299 0.228270 -0.431698 -0.000000 -1.0937804 -1.3098694 -0.0000000 52.3025584 30.0952518 0.0000004 16.0563148
2.0055841 0.0535947 0.6212299 0.194181 -0.463711 -0.000000 3.6749095 3.2434622 0.0000000 59.9408319 25.0501303 -0.0000001 14.1419746
2.0588023 -0.0176370 0.6212299 0.148673 -0.493905 -0.000000 11.4961959 6.9307638 0.0000000 67.3367571 18.5791981 0.0000005 12.3893574
2.0984708 -0.1004127 0.6212299 0.090838 -0.517970 -0.000000 21.3207359 7.3931477 0.0000001 73.6034973 10.6908090 0.0000000 10.7072117
2.1195240 -0.1924110 0.6212299 0.022234 -0.530950 -0.000000 29.1048197 2.9635551 0.0000000 77.5326067 1.6985442 0.0000003 9.7643022
2.1178560 -0.2889664 0.6212299 -0.052698 -0.528168 -0.000000 30.4594440 -4.4542425 -0.0000000 78.2955966 -8.0378755 -0.0000001 9.5203354
2.0918005 -0.3836821 0.6212299 -0.127191 -0.508023 -0.000000 24.1545996 -10.0328140 -0.0000001 75.4084555 -18.0782895 0.0000001 10.4092462
2.0429377 -0.4700752 0.6212299 -0.194251 -0.472289 -0.000000 14.1244772 -10.3163890 -0.0000001 68.8056942 -27.8165426 -0.0000003 11.9550065
1.9755739 -0.5433308 0.6212299 -0.249664 -0.426552 -0.000000 5.2884014 -5.9743776 -0.0000000 59.4007112 -36.0330014 -0.0000002 14.0458713
1.8953645 -0.6011425 0.6212299 -0.291496 -0.376242 -0.000000 0.1435150 -0.2409525 -0.0000000 48.6111862 -42.0281395 -0.0000003 16.0208140
1.8086926 -0.6432258 0.6212299 -0.321739 -0.325708 -0.000000 -1.9841087 5.0196298 0.0000000 38.3331365 -46.6626938 -0.0000006 18.0955716
1.7454400 -0.6597330 0.5476845 -0.331414 -0.295707 0.003720 -2.4472235 8.0870040 1.1073455 31.4220451 -46.9441306 -7.6838186 19.1685849
1.7608203 -0.6371317 0.4692625 -0.315685 -0.306003 0.007175 -1.7617783 5.1049755 1.6210427 33.5463517 -44.8174401 -16.9766518 18.6243025
1.7646194 -0.6027561 0.3906145 -0.292122 -0.311939 0.010310 -1.3613453 3.5068676 1.8576966 34.2390114 -41.2712579 -25.9483735 18.3884846
1.7552200 -0.5579655 0.3164278 -0.262381 -0.312552 0.012196 -0.9449567 2.1837578 1.7329971 33.8808745 -36.4973181 -34.2265710 18.1080798
1.7324167 -0.5050126 0.2502655 -0.227144 -0.306876 0.013051 -0.6132659 1.2770141 1.4553648 32.1632158 -30.9250599 -41.3622708 18.2243143
1.6970786 -0.4468298 0.1946194 -0.189175 -0.295120 0.013032 -0.4004594 0.7492882 1.2186972 29.4555944 -24.9019991 -47.0196397 18.3736792
1.6507908 -0.3865066 0.1506900 -0.150237 -0.277942 0.012699 -0.3054159 0.5057699 1.2039565 26.0181050 -18.8689373 -51.1893174 18.8845233
1.5954639 -0.3268272 0.1184746 -0.112754 -0.256769 0.012384 -0.2596946 0.3653016 1.3641005 22.2305946 -13.1124233 -53.9379993 19.3665651
1.5329970 -0.2699570 0.0970609 -0.077790 -0.233005 0.012386 -0.2261074 0.2406918 1.6690435 18.2733932 -7.8823302 -55.5396367 20.1491194
1.4650607 -0.2173299 0.0850068 -0.046696 -0.208264 0.012656 -0.1696316 0.0804411 1.9455250 14.5252016 -3.2152715 -56.2271531 20.7446938
1.3930066 -0.1696988 0.0806902 -0.019526 -0.183535 0.013053 -0.0997137 -0.1023284 2.2381079 10.9797519 0.7975893 -56.2797340 21.5789863
1.3178818 -0.1272879 0.0825440 0.003405 -0.159666 0.013344 -0.0169909 -0.2900213 2.4128913 7.8191294 4.2166584 -55.9100375 22.1584498
1.2405449 -0.0899868 0.0891742 0.022463 -0.137227 0.013347 0.0677283 -0.4886047 2.6517744 5.0106963 7.0933861 -55.2331629 22.9141750
1.1618446 -0.0575210 0.0993572 0.037813 -0.116515 0.012989 0.1885991 -0.8465014 3.5392440 2.7138225 9.2783325 -53.6483130 23.3526921
1.0834057 -0.0297577 0.1119004 0.050111 -0.097832 0.012078 0.3784009 -1.4171159 4.9292064 0.5430831 11.4068311 -53.6525594 24.0308232
1.6960187 0.2452590 0.5764774 0.284734 -0.328295 0.001149 -3.4440349 -9.7416722 0.8209425 29.8292937 39.0077672 -4.3074124 21.2457196
1.7113460 0.2335567 0.5291912 0.278829 -0.333804 0.001847 -3.1781035 -8.4434119 1.5155150 31.3853277 39.3709677 -9.0488784 20.9438552
1.7179131 0.2196623 0.4797179 0.270117 -0.335795 0.002608 -3.2209967 -8.1824548 2.3389890 31.8466369 38.0266311 -14.0032102 20.6886510
1.7149535 0.2035099 0.4290305 0.258470 -0.333934 0.003541 -3.0122338 -7.4508738 3.0129094 31.7224407 36.7277625 -19.1227554 20.5684556
1.7016812 0.1852560 0.3783863 0.243993 -0.327828 0.004867 -2.6876282 -6.6056751 3.5408807 30.8928180 35.2013753 -24.3208381 20.5230684
1.6776999 0.1651795 0.3292168 0.227077 -0.317244 0.006763 -2.2964822 -5.7410410 3.9150867 29.2835242 33.4261929 -29.3780499 20.6274172
1.6430899 0.1436471 0.2829594 0.208152 -0.302192 0.009187 -1.8767254 -4.9053920 4.1377962 27.0063107 31.4155255 -34.1710627 20.8265743
1.5983812 0.1210791 0.2409004 0.187962 -0.283020 0.011990 -1.4472785 -4.0910953 4.1848014 24.1143997 29.2237673 -38.5266673 21.1225679
1.5444494 0.0979149 0.2040611 0.167012 -0.260267 0.014846 -1.0517945 -3.3608862 4.1121642 20.8301585 26.8535213 -42.3958308 21.4913378
1.4823793 0.0745896 0.1731406 0.146015 -0.234874 0.017258 -0.6970994 -2.6855574 3.8963369 17.2575781 24.3985295 -45.6472710 21.9104586
1.4133327 0.0515201 0.1485159 0.125201 -0.207586 0.018892 -0.4128102 -2.1413302 3.6687407 13.6321739 21.7801126 -48.3265450 22.3415903
1.3384339 0.0291044 0.1302720 0.105076 -0.179533 0.019316 -0.1835992 -1.6533903 3.3464605 10.0249288 19.1631103 -50.4088852 22.7842740
1.2586428 0.0077208 0.1182565 0.085630 -0.151507 0.018368 -0.0146570 -1.2707277 3.0537403 6.6361059 16.4886684 -51.9388778 23.2169082
1.1743951 -0.0121821 0.1121718 0.067275 -0.124363 0.015953 0.0709341 -0.6379415 1.8384373 3.4533301 14.1764746 -53.7339718 23.5995290
1.7662358 0.2171656 0.5715644 0.275538 -0.354545 0.000463 -3.7079027 -8.3741367 0.8364330 35.2684672 37.9511194 -4.8878415 20.0462609
1.7823466 0.2016973 0.5189349 0.266910 -0.360680 0.000681 -3.5561538 -7.4804475 1.6011079 36.7946582 36.8903627 -10.2655502 19.5245047
1.7874488 0.1841839 0.4642561 0.255394 -0.362561 0.000796 -3.3777999 -6.7483508 2.3170577 37.2557488 35.4811111 -15.8028238 19.3807611
1.7810512 0.1645767 0.4087958 0.240409 -0.359442 0.001343 -3.0153249 -5.8349539 2.8567040 36.9750713 33.8343901 -21.5681993 19.1511249
1.7626890 0.1431113 0.3541481 0.222802 -0.351258 0.002512 -2.6157142 -5.0088667 3.2779476 35.6109500 31.9961471 -27.2374811 19.3114883
1.7323401 0.1201902 0.3020378 0.202666 -0.337618 0.004517 -2.1751718 -4.2227798 3.5464222 33.4033558 29.8591148 -32.6698758 19.3878578
1.6905127 0.0963027 0.2540815 0.181219 -0.319035 0.007236 -1.7458087 -3.5341459 3.7056596 30.3162004 27.6027695 -37.6595609 19.8335278
1.6381568 0.0719601 0.2115992 0.158816 -0.295871 0.010396 -1.3214436 -2.8870419 3.7094444 26.6943939 25.1428314 -42.0632932 20.1616805
1.5764855 0.0476504 0.1755156 0.136601 -0.269233 0.013516 -0.9496588 -2.3434782 3.6461588 22.5944121 22.5973250 -45.7894180 20.7793990
1.5067720 0.0238210 0.1463499 0.114688 -0.239915 0.016099 -0.6151204 -1.8358031 3.4384045 18.3795675 19.9198412 -48.8191640 21.2157676
1.4301492 0.0008863 0.1242731 0.093790 -0.209259 0.017579 -0.3503538 -1.4323055 3.2291199 14.0900885 17.2803262 -51.1249353 21.8976152
1.3473815 -0.0207360 0.1091987 0.073696 -0.177940 0.017681 -0.1368427 -1.0615612 2.8981105 10.0453305 14.5886290 -52.8308445 22.3117385
1.2584789 -0.0405179 0.1009224 0.055096 -0.146958 0.016147 0.0174695 -0.8170540 2.7355392 6.1398460 11.9984203 -53.9305955 22.9924628
1.8358665 0.1822152 0.5664491 0.261353 -0.382691 -0.000247 -3.5943028 -6.4277661 0.7691239 41.2784743 35.4851917 -5.5477795 18.6285609
1.8511807 0.1625281 0.5081590 0.249557 -0.389312 -0.000887 -3.2826342 -5.4155813 1.4068480 42.8343897 33.9422805 -11.5241512 18.1943281
1.8534156 0.1408808 0.4478583 0.234238 -0.390384 -0.001302 -2.8152857 -4.3725249 1.8480069 43.2916167 32.1621811 -17.8683924 17.9194364
1.8420766 0.1174228 0.3873768 0.215559 -0.385415 -0.001098 -2.3542633 -3.5144831 2.1473664 42.4916545 30.1491690 -24.2277542 17.8710962
1.8170202 0.0925769 0.3287935 0.194125 -0.374018 0.000115 -1.9563569 -2.8706305 2.3770700 40.4909361 27.8857348 -30.4441177 18.0256018
1.7787100 0.0669165 0.2741578 0.170950 -0.356390 0.002439 -1.6083255 -2.3782306 2.5637301 37.3677818 25.4845503 -36.2055569 18.3933968
1.7281885 0.0410535 0.2252064 0.146954 -0.333063 0.005661 -1.3207439 -2.0255251 2.7691507 33.3503697 22.8882597 -41.3270701 18.8929357
1.6668729 0.0155561 0.1831850 0.123190 -0.305148 0.009272 -1.0265271 -1.6914105 2.8851900 28.7090268 20.2357151 -45.6461156 19.5227633
1.5962790 -0.0090875 0.1488132 0.100183 -0.273780 0.012649 -0.7542850 -1.4009302 2.9578252 23.7509339 17.5054360 -49.1046713 20.2042802
1.5177555 -0.0324513 0.1223536 0.078431 -0.240267 0.015167 -0.4881455 -1.1033167 2.8830279 18.7349008 14.7992666 -51.7188227 20.9017259
1.4322431 -0.0541151 0.1037476 0.058128 -0.205656 0.016342 -0.2653852 -0.8536039 2.7839423 13.8310720 12.0942201 -53.5693617 21.6119977
1.3400329 -0.0735586 0.0927651 0.039359 -0.171115 0.015764 -0.0815884 -0.6385961 2.6474341 9.2468409 9.5389805 -54.6926261 22.2735198
1.9039251 0.1387549 0.5607608 0.240770 -0.412878 -0.001063 -2.5036724 -3.4839350 0.5137873 47.9696106 32.1530519 -6.2677286 17.0583177
1.9166850 0.1143371 0.4963868 0.224815 -0.419216 -0.002352 -1.6350200 -2.0724204 0.6765940 49.5725643 30.1241969 -13.0993249 16.4647375
1.9141675 0.0881913 0.4302532 0.205182 -0.418722 -0.003302 -0.9486491 -1.1176404 0.6056385 49.6182405 27.9075833 -20.1749179 16.3628354
1.8959410 0.0607788 0.3648817 0.182148 -0.410459 -0.003161 -0.5339061 -0.5970158 0.4774558 48.1404999 25.4153042 -27.2475387 16.3381554
1.8623104 0.0327838 0.3028874 0.157168 -0.394711 -0.001652 -0.4646212 -0.5042622 0.5586210 45.0825613 22.8433613 -33.9166875 16.7794267
1.8143725 0.0049613 0.2465903 0.131144 -0.371666 0.001196 -0.5333804 -0.5758019 0.8506898 40.8129950 20.0843600 -39.9068712 17.2569533
1.7537986 -0.0220008 0.1977190 0.105624 -0.342787 0.004937 -0.6446080 -0.7117671 1.3714826 35.5675585 17.3158027 -44.9425514 18.1016139
1.6824803 -0.0475516 0.1573016 0.081248 -0.309272 0.008900 -0.6174797 -0.7218153 1.7958705 29.8808225 14.5006709 -49.0013081 18.8238523
1.6021734 -0.0712675 0.1257422 0.058823 -0.272918 0.012318 -0.5210900 -0.6771634 2.1793868 23.9532991 11.7651961 -52.0210384 19.8095239
1.5142281 -0.0927758 0.1029879 0.038180 -0.235033 0.014464 -0.3486292 -0.5490095 2.3214199 18.2371588 9.1025510 -54.0929002 20.5542325
1.4194162 -0.1116481 0.0887276 0.019761 -0.196964 0.014901 -0.1788626 -0.4231752 2.4320402 12.7821862 6.5916004 -55.3344469 21.4903280
1.9683212 0.0851502 0.5544669 0.211726 -0.444398 -0.001895 0.5897942 0.6194622 -0.1178515 55.2828199 27.7612494 -7.1140630 15.2990004
1.9764687 0.0556304 0.4836918 0.190833 -0.449394 -0.003832 2.0280748 1.9023954 -0.8236684 56.6194501 25.1892130 -14.8045992 14.8607637
1.9669676 0.0249578 0.4118351 0.166272 -0.445708 -0.004924 2.6962669 2.3000386 -1.7039069 55.9796213 22.4350616 -22.7233906 14.7647888
1.9396950 -0.0060191 0.3421626 0.139115 -0.432749 -0.004529 2.4852561 1.9637547 -2.2212040 53.3827088 19.5690163 -30.4046166 15.0717428
1.8956341 -0.0363461 0.2777627 0.110959 -0.410854 -0.002385 1.6568738 1.2356252 -2.0135885 48.9978715 16.5976861 -37.4384314 15.6925036
1.8366753 -0.0651579 0.2210656 0.083463 -0.381352 0.001181 0.7275255 0.5218601 -1.1894302 43.2563106 13.6539172 -43.4359407 16.5531438
1.7651655 -0.0918069 0.1735988 0.057790 -0.345980 0.005449 0.0503803 0.0354332 -0.1119418 36.7028990 10.7637233 -48.2772932 17.5570984