# volRat = 0.650000
# viscRat = 5.000000
# alpha = 0.500000
# shRate = 3.182000
# tnum = 7700
# time = 7.674960
VARIABLES = X, Y, Z, U, V, W, F_B0, F_B1, F_B2, F_0, F_1, F_2, T
ZONE N=2562 E=5120 F=FEPOINT ET=TRIANGLE
1.5959338 0.2177274 0.6212299 0.307412 -0.082621 -0.000000 1.5832784 5.7270609 0.0000009 22.8908197 38.9239644 0.0000001 21.2432690
-1.6628650 0.7293792 0.6212299 0.309019 0.050999 -0.000000 -1.7532628 10.6455288 0.0000026 -21.8457510 49.4690969 0.0000016 18.8090607
1.6628649 -0.7293796 0.6212299 -0.309019 -0.050999 -0.000000 1.7532609 -10.6455283 0.0000027 21.8457399 -49.4690994 0.0000027 18.8090619
-1.5959337 -0.2177279 0.6212299 -0.307412 0.082621 -0.000000 -1.5832784 -5.7270622 0.0000009 -22.8908155 -38.9239686 0.0000008 21.2432707
0.9715410 -0.1297652 1.1280032 0.036323 0.067813 -0.007979 -1.3912605 1.6315155 14.7269808 -1.5159940 3.8237048 56.4340275 22.6505990
0.9715410 -0.1297652 0.1144566 0.036323 0.067813 0.007979 -1.3912660 1.6315490 -14.7271116 -1.5160026 3.8237220 -56.4341611 22.6505993
-0.9715411 0.1297649 1.1280033 -0.036323 -0.067813 -0.007979 1.3912639 -1.6315133 14.7270081 1.5159989 -3.8236873 56.4340543 22.6505994
-0.9715411 0.1297649 0.1144565 -0.036323 -0.067813 0.007979 1.3912677 -1.6315449 -14.7271211 1.5160067 -3.8237090 -56.4341696 22.6505986
-0.1017967 0.3640804 0.8428312 0.179712 -0.045321 0.007772 -13.3068359 -58.5143862 -35.2202855 -2.8998221 -9.4337845 -1.5368933 25.4763235
0.1017966 -0.3640807 0.8428313 -0.179712 0.045321 0.007772 13.3074707 58.5171462 -35.2217212 2.9004638 9.4365454 -1.5383263 25.4763308
-0.1017967 0.3640804 0.3996286 0.179712 -0.045321 -0.007772 -13.3072794 -58.5162826 35.2213060 -2.9002659 -9.4356628 1.5378928 25.4763306
0.1017966 -0.3640807 0.3996285 -0.179712 0.045321 -0.007772 13.3068511 58.5143948 35.2202160 2.8998425 9.4338103 1.5368451 25.4763206
1.6193969 0.2097058 0.6701167 0.305833 -0.089538 -0.000777 -3.3507681 -11.4165355 -0.9696401 23.7800810 36.5710538 4.0993700 21.0618495
1.6372232 0.1969808 0.7235969 0.299992 -0.093171 -0.001129 -3.1733284 -10.1598058 -1.9673860 24.8212780 35.4044879 9.1255063 20.6321022
1.6467314 0.1798145 0.7797504 0.290136 -0.094449 -0.001282 -3.0452371 -9.2694506 -2.9097008 25.3484403 34.3118960 14.2960689 20.4356607
1.6461168 0.1585478 0.8363803 0.275792 -0.092874 -0.001449 -2.7989006 -8.2188829 -3.6928347 25.4460176 32.8674395 19.6071971 20.1103560
1.6344150 0.1336901 0.8915718 0.257952 -0.087945 -0.001917 -2.4853064 -7.1660270 -4.3190653 24.7795791 31.0019589 24.8479408 20.0689165
1.6113265 0.1060167 0.9434797 0.236906 -0.079419 -0.002835 -2.0772594 -6.0079096 -4.6734486 23.5242513 28.7896862 29.8499836 19.9411185
1.5771582 0.0765122 0.9905002 0.213962 -0.067554 -0.004200 -1.6431900 -4.8938940 -4.7949171 21.6042156 26.3225071 34.4511479 20.0946422
1.5327234 0.0462653 1.0314088 0.189873 -0.052709 -0.005858 -1.2113591 -3.8429356 -4.6703685 19.2490588 23.6441359 38.5439371 20.1749386
1.4791947 0.0163445 1.0654466 0.165933 -0.035788 -0.007508 -0.8374350 -2.9661692 -4.4329531 16.4766755 20.8686133 42.0001282 20.5121025
1.4179433 -0.0123072 1.0923281 0.142636 -0.017583 -0.008861 -0.5281185 -2.2483828 -4.1199380 13.5783037 18.0132235 44.7854669 20.7132040
1.3504013 -0.0389404 1.1121802 0.120802 0.000753 -0.009762 -0.2848119 -1.6775702 -3.7789631 10.5939724 15.2335562 46.9939039 21.1613569
1.2779782 -0.0630231 1.1254502 0.100465 0.018371 -0.009917 -0.1008379 -1.2295013 -3.4355724 7.7678573 12.5179309 48.6291219 21.4092788
1.2020672 -0.0842304 1.1328068 0.081970 0.034552 -0.009037 0.0363386 -0.9747358 -3.4374157 5.0760000 9.8717244 49.5840533 21.8684647
1.1241287 -0.1024231 1.1350707 0.065006 0.048560 -0.007819 0.1531863 -0.7442892 -3.4101439 2.7336193 7.4135658 50.3121866 22.0993598
1.0463878 -0.1175459 1.1331698 0.049857 0.059849 -0.005874 0.4420425 -0.9423852 -5.9422187 0.6311101 5.0007120 49.7071291 22.5326766
1.7743898 -0.7000998 0.6898148 -0.292218 -0.091994 -0.002585 -1.7281297 5.4296537 -0.7654324 31.8387794 -43.5101305 7.4594075 17.0878800
1.7910329 -0.6788873 0.7606713 -0.278431 -0.101648 -0.004580 -1.6277114 4.4608686 -1.3660405 33.7369805 -41.4642837 15.1070249 16.6885243
1.7945376 -0.6492178 0.8316533 -0.258758 -0.106984 -0.006217 -1.2300336 3.0249680 -1.5164692 34.5165902 -38.5265559 22.9576672 16.3789161
1.7843094 -0.6117235 0.8998445 -0.233685 -0.107291 -0.006794 -0.8739011 1.9705362 -1.4533821 33.8502811 -34.6267109 30.1986334 16.3047525
1.7602754 -0.5678214 0.9624495 -0.204329 -0.102054 -0.006159 -0.6282522 1.3227503 -1.3665594 31.9696703 -30.0873406 36.5115439 16.3955918
1.7231841 -0.5193965 1.0172174 -0.172119 -0.091332 -0.004603 -0.4947908 0.9883370 -1.4021078 29.0509540 -25.2599987 41.6400791 16.7317862
1.6744303 -0.4684658 1.0627313 -0.138887 -0.075812 -0.002537 -0.4419566 0.8492068 -1.6558495 25.4400130 -20.4013634 45.5017746 17.2230252
1.6157530 -0.4168773 1.0984568 -0.106089 -0.056798 -0.000589 -0.3845739 0.7190756 -1.9699781 21.5101047 -15.8039891 48.2126173 17.8450398
1.5489422 -0.3661221 1.1245999 -0.074918 -0.035890 0.000751 -0.3131528 0.5745282 -2.3297130 17.5594026 -11.5506626 49.9468394 18.5440504
1.4756355 -0.3172764 1.1418860 -0.046127 -0.014647 0.001221 -0.2102911 0.3791201 -2.5463387 13.7874841 -7.7584935 50.9523513 19.2915504
1.3972179 -0.2710360 1.1513322 -0.020337 0.005492 0.000780 -0.1042284 0.1795795 -2.7032648 10.3643461 -4.3807111 51.4270999 20.0129266
1.3147945 -0.2277988 1.1540837 0.002249 0.023485 -0.000444 -0.0041891 -0.0114609 -2.7100549 7.3411489 -1.4311356 51.5579353 20.7118741
1.2291614 -0.1877477 1.1512933 0.021600 0.038660 -0.002276 0.0759994 -0.1706582 -2.6168450 4.6975038 1.1284986 51.5581872 21.3888526
1.1405347 -0.1509768 1.1440600 0.037557 0.050702 -0.004345 0.1299642 -0.2843705 -2.4140376 2.5037603 3.3765479 51.5053085 21.9639261
1.8592895 -0.6658216 0.6961922 -0.272374 -0.131200 -0.002765 -0.7958706 1.6396525 -0.2825763 41.2179328 -41.0343244 8.3947956 15.4407587
1.8742325 -0.6373486 0.7728712 -0.253583 -0.141858 -0.005338 0.0859270 -0.1541491 0.0584626 43.2837212 -38.0905743 17.1927069 14.8529469
1.8727403 -0.6007252 0.8480769 -0.228475 -0.145946 -0.006662 0.7056805 -1.1254114 0.7126157 43.3873221 -34.2047728 25.5616062 14.7200034
1.8550639 -0.5570783 0.9185378 -0.198595 -0.143281 -0.006705 0.9324769 -1.3380226 1.2811735 41.7540412 -29.4543403 33.0801168 14.7016462
1.8220701 -0.5083165 0.9813860 -0.165039 -0.133410 -0.005542 0.7310091 -0.9482705 1.3214916 38.4980372 -24.3661024 39.2994885 15.1394227
1.7753958 -0.4566540 1.0346184 -0.130447 -0.117324 -0.003525 0.3332265 -0.3888884 0.7866311 34.2332763 -19.1631733 44.0157561 15.6326384
1.7171546 -0.4041819 1.0772876 -0.095980 -0.096249 -0.001506 -0.0483857 0.0497159 -0.1506080 29.3657959 -14.2686279 47.3457754 16.4880200
1.6495484 -0.3525919 1.1094004 -0.063416 -0.072250 -0.000013 -0.2623009 0.2237215 -1.1045461 24.4141164 -9.7583273 49.4657056 17.2671453
1.5745587 -0.3030766 1.1316455 -0.033386 -0.047163 0.000535 -0.3261980 0.1936995 -1.9467173 19.6292295 -5.7600112 50.6614369 18.2607488
1.4937746 -0.2563679 1.1451029 -0.006714 -0.022829 0.000083 -0.2645608 0.0335567 -2.4321846 15.3119466 -2.2429700 51.2085251 19.0536681
1.4083088 -0.2128390 1.1510026 0.016740 -0.000388 -0.001297 -0.1635986 -0.1625319 -2.7577377 11.3975015 0.7672030 51.3176716 20.0313085
1.3187035 -0.1726228 1.1505741 0.036427 0.019135 -0.003313 -0.0501713 -0.3396244 -2.7990407 8.0945562 3.3918492 51.1810249 20.6948112
1.2246453 -0.1357572 1.1449425 0.052751 0.035442 -0.005645 0.0483666 -0.5137937 -2.9413123 5.1770800 5.6190123 50.8172162 21.5617583
1.9387461 -0.6181343 0.7016700 -0.242764 -0.173517 -0.003023 2.9317740 -4.0777480 0.8787030 51.3899180 -36.6981719 9.3919052 13.5413309
1.9491024 -0.5822675 0.7830894 -0.217994 -0.183271 -0.005024 4.4353537 -5.2966399 2.5820170 52.9350901 -32.8179411 18.8372065 13.1188682
1.9403464 -0.5390058 0.8614023 -0.187479 -0.184442 -0.005786 4.8604847 -5.0260015 4.2476353 51.9682539 -27.9940591 27.6735628 13.0397322
1.9134256 -0.4901560 0.9329117 -0.153071 -0.176629 -0.004957 4.1421924 -3.6923519 4.9710354 48.7953411 -22.7465283 35.1659456 13.3891945
1.8702061 -0.4380533 0.9948098 -0.117072 -0.160689 -0.003134 2.7286785 -2.0495412 4.3403365 43.9552589 -17.3173465 41.0548812 14.0593834
1.8132350 -0.3850119 1.0455305 -0.081348 -0.138117 -0.001109 1.3220042 -0.7894179 2.7601242 38.1680809 -12.1822258 45.2790791 14.9902604
1.7452411 -0.3329260 1.0847243 -0.047628 -0.111239 0.000432 0.3071768 -0.1252057 0.8477016 32.1038065 -7.4720070 48.0393382 16.0352411
1.6686933 -0.2831132 1.1129621 -0.016865 -0.082398 0.000987 -0.2199236 0.0321745 -0.8200255 26.2054938 -3.3288810 49.6202189 17.1478907
1.5855368 -0.2363481 1.1313547 0.010452 -0.053733 0.000385 -0.3851946 -0.0994600 -2.0212547 20.7574235 0.2580604 50.3761552 18.2427250
1.4970842 -0.1929946 1.1412395 0.034009 -0.026861 -0.001238 -0.3394871 -0.3323206 -2.6957104 15.9549803 3.3176874 50.5717055 19.2636644
1.4039592 -0.1531606 1.1439641 0.053884 -0.002898 -0.003618 -0.2190546 -0.5672627 -3.0460160 11.7417570 5.9354398 50.4311517 20.2256336
1.3059934 -0.1168615 1.1407803 0.069903 0.017676 -0.006372 -0.0856937 -0.7658186 -3.1953257 8.1569516 8.1093756 50.0861171 21.0954594
2.0089042 -0.5558814 0.7063265 -0.200882 -0.215794 -0.002524 10.2145051 -9.4558164 2.6942404 61.1269883 -30.2650345 10.1335106 11.6284259
2.0118081 -0.5131490 0.7911641 -0.170097 -0.222412 -0.003745 11.7222564 -8.9861953 6.0865940 61.5139839 -25.5011651 20.0547061 11.2694380
1.9935076 -0.4645272 0.8710350 -0.134904 -0.218045 -0.003288 10.6374368 -6.6444878 8.3849062 58.9259835 -20.2279724 28.9069475 11.6053574
1.9558320 -0.4123951 0.9420620 -0.097895 -0.203503 -0.001649 7.7882597 -3.7748053 8.5120624 53.9820334 -14.7403298 36.1863509 12.2423392
1.9016716 -0.3592400 1.0017571 -0.061294 -0.180205 0.000423 4.4854315 -1.4892416 6.5519954 47.4876138 -9.5160459 41.6206945 13.3816509
1.8343364 -0.3071415 1.0491571 -0.027054 -0.151080 0.002049 1.9047826 -0.2827128 3.6782179 40.3800984 -4.7041749 45.3007134 14.5537970
1.7569143 -0.2575358 1.0845360 0.003996 -0.118789 0.002533 0.3288785 0.0306575 0.8444129 33.2943728 -0.5216664 47.5498413 15.9709249
1.6718747 -0.2112384 1.1089494 0.031081 -0.086107 0.001769 -0.3501555 -0.1539666 -1.2203743 26.7504606 3.0876696 48.7122137 17.1679438
1.5809147 -0.1686009 1.1238093 0.054361 -0.054934 -0.000235 -0.5216403 -0.5137296 -2.5667591 20.8697119 6.1154611 49.1569516 18.4951857
1.4849494 -0.1296975 1.1306014 0.073607 -0.026660 -0.003095 -0.4247986 -0.8309311 -3.1675032 15.8099393 8.6588463 49.1683803 19.5149060
1.3841435 -0.0944976 1.1307249 0.089034 -0.002101 -0.006446 -0.2662401 -1.0915530 -3.4680635 11.4461267 10.7713198 48.9220324 20.6245857
2.0648670 -0.4793779 0.7098009 -0.145641 -0.253294 -0.001470 20.2014699 -11.5392048 4.8559854 68.9860165 -21.9152554 10.5517845 9.9092127
2.0577731 -0.4313557 0.7964244 -0.110013 -0.254051 -0.001295 19.8290697 -8.5512248 9.5014128 67.6621342 -16.7327802 20.5265797 9.9671347
2.0282413 -0.3796976 0.8760948 -0.072350 -0.242274 0.000303 15.6349883 -4.6005199 11.4984350 63.2011121 -11.3833670 29.1796074 10.6350010
1.9791472 -0.3269959 0.9451318 -0.035429 -0.219747 0.002561 9.9086068 -1.4514538 10.2043231 56.5392534 -6.2046393 36.0124341 11.8041012
1.9142480 -0.2754711 1.0016178 -0.001090 -0.189459 0.004291 4.8706977 0.1352480 6.7658381 48.6616599 -1.4272600 40.9493301 13.2365871
1.8372892 -0.2266560 1.0452476 0.029411 -0.154625 0.004879 1.5673875 0.3920026 2.9034109 40.5719056 2.7164275 44.1276687 14.7722022
1.7513879 -0.1813938 1.0768299 0.055790 -0.118556 0.003944 -0.0897088 -0.0497439 -0.2228432 32.8989787 6.2624065 45.9892196 16.2891527
1.6587790 -0.1400127 1.0977580 0.077943 -0.083548 0.001618 -0.6620175 -0.6630386 -2.2520661 26.0179531 9.1818070 46.8898046 17.7149322
1.5608082 -0.1025391 1.1096154 0.096120 -0.051455 -0.001743 -0.6846480 -1.1743099 -3.3212839 20.0135583 11.6217474 47.2013573 18.9953008
1.4580370 -0.0688769 1.1139505 0.110343 -0.023183 -0.005676 -0.5005445 -1.5025942 -3.7272891 14.9194728 13.6195138 47.1608351 20.1507180
2.1015763 -0.3911808 0.7116562 -0.078693 -0.280319 0.000095 28.8744486 -8.0130100 6.5184545 73.5405856 -12.4965832 10.5742124 8.7315258
2.0828135 -0.3405274 0.7981941 -0.040819 -0.273058 0.001795 24.7206760 -3.5624890 11.2568005 70.3374518 -7.3998407 20.2920567 9.1936734
2.0415406 -0.2888870 0.8759560 -0.003903 -0.253031 0.004291 16.9016175 -0.0306999 11.9401153 64.1799113 -2.4094953 28.4989453 10.4122552
1.9815636 -0.2385550 0.9417963 0.029838 -0.223179 0.006450 9.1495156 1.4950837 9.1435761 56.1834171 2.1979994 34.8187693 11.8679754
1.9071198 -0.1911216 0.9944768 0.059246 -0.187257 0.007341 3.5236065 1.3025469 4.7968256 47.4506944 6.2209351 39.2170229 13.6604978
1.8219867 -0.1474373 1.0342673 0.084082 -0.148912 0.006494 0.4800228 0.3089260 0.8801495 38.9249242 9.6174829 42.0061473 15.2797209
1.7290322 -0.1077974 1.0623462 0.104566 -0.111090 0.003982 -0.7679089 -0.7899397 -1.9081044 31.1355189 12.4026911 43.6024238 16.9618735
1.6301409 -0.0721728 1.0802963 0.120965 -0.075861 0.000232 -0.9827563 -1.5771683 -3.3839730 24.3220856 14.6916438 44.4081601 18.3218497
1.5263296 -0.0404012 1.0897704 0.133612 -0.044467 -0.004242 -0.8136593 -2.0662319 -4.0537571 18.4839220 16.5207953 44.7257621 19.7046850
2.1152213 -0.2962149 0.7115846 -0.004837 -0.292021 0.001817 31.1285494 -0.4240400 6.7786447 74.2417385 -3.0457628 10.2682776 8.4475819
2.0845318 -0.2461838 0.7961814 0.031712 -0.276287 0.004743 23.0758396 2.8441511 10.2505629 69.3370680 1.6608738 19.4784858 9.4416054
2.0324163 -0.1975972 0.8706376 0.064578 -0.249046 0.007516 13.4829401 3.7799000 9.3909017 61.9591494 6.0650294 27.0911181 10.9737032
1.9631809 -0.1520519 0.9325061 0.092523 -0.214026 0.009065 5.7859011 2.7394489 5.7600454 53.2269453 9.9221478 32.7879740 12.7603615
1.8810747 -0.1103833 0.9811653 0.115518 -0.175203 0.008631 1.2041544 0.8725878 1.6501100 44.2623054 13.1531609 36.7432401 14.5795883
1.7895875 -0.0728469 1.0172893 0.133769 -0.135861 0.006309 -0.8323525 -0.8887063 -1.5530767 35.8567645 15.7447652 39.2327326 16.3243291
1.6912097 -0.0393630 1.0422686 0.148057 -0.098615 0.002413 -1.3490334 -2.1040685 -3.4520684 28.3525588 17.8396495 40.7237120 17.9030948
1.5874851 -0.0097126 1.0577660 0.158618 -0.064960 -0.002383 -1.1913251 -2.7491825 -4.2834129 21.9334586 19.5135347 41.5452516 19.2962856
2.1045976 -0.2008122 0.7095726 0.068838 -0.286697 0.003250 25.3160594 6.1453089 5.4486381 71.3383097 5.8016162 9.7274542 9.1224931
2.0632070 -0.1543680 0.7906756 0.100759 -0.264051 0.006746 15.9841108 6.2708825 7.0935872 65.2141175 9.9303857 18.2692172 10.4014181
2.0022058 -0.1110521 0.8608686 0.127258 -0.232161 0.009194 7.3822856 4.2400138 5.1908562 57.1839020 13.5640242 25.1631491 12.1822014
1.9258854 -0.0716603 0.9183660 0.148186 -0.194874 0.009669 1.7603564 1.4221833 1.7877752 48.4033985 16.5739498 30.2776861 13.9536086
1.8381625 -0.0364079 0.9629959 0.164223 -0.155945 0.007969 -0.9924759 -1.1123413 -1.4023853 39.7910400 18.9982409 33.7994904 15.8369981
1.7421158 -0.0051760 0.9956812 0.176124 -0.118087 0.004342 -1.7641163 -2.7466342 -3.4331263 31.9604809 20.9275383 36.1432544 17.4056720
1.6398748 0.0222886 1.0179212 0.184552 -0.083343 -0.000476 -1.6500461 -3.6173388 -4.4601849 25.0900204 22.4431959 37.6118839 18.9785901
2.0714894 -0.1109549 0.7059242 0.135488 -0.266720 0.003998 14.9784244 7.6385006 3.2581046 65.5347651 13.6785480 9.0192550 10.5694978
2.0215530 -0.0700239 0.7824419 0.160822 -0.239986 0.007437 7.3164502 4.9890098 3.3155918 58.8306256 17.0489551 16.7544840 12.0887948
1.9539546 -0.0329813 0.8478095 0.180272 -0.206599 0.009063 1.6469558 1.4835985 1.1946281 50.8105413 19.8765490 22.9146442 13.8262269
1.8726199 0.0000042 0.9007378 0.194351 -0.169928 0.008398 -1.3448129 -1.6013888 -1.4234777 42.5481640 22.1091735 27.4916760 15.5840556
1.7810390 0.0290727 0.9413535 0.204216 -0.133172 0.005496 -2.2881819 -3.6331361 -3.4061235 34.7022486 23.8723041 30.7490903 17.2586711
1.6819313 0.0544815 0.9707463 0.210488 -0.098548 0.001068 -2.1599228 -4.6430857 -4.4793546 27.7010251 25.2368341 32.9543359 18.7770607
2.0197924 -0.0307836 0.7011313 0.190712 -0.237088 0.004028 5.3132971 4.2782185 1.1922477 57.9692641 20.2447926 8.1907023 12.4769206
1.9635898 0.0039553 0.7724183 0.209156 -0.209229 0.006745 0.7190726 0.7266900 0.3394290 51.3128381 22.8074522 15.1363920 13.8838089
1.8913300 0.0348170 0.8326342 0.222046 -0.176821 0.007371 -1.9937680 -2.5552454 -1.5210076 43.8873594 24.8720451 20.6247510 15.5884739
1.8065190 0.0619643 0.8808167 0.230309 -0.142773 0.005611 -2.8606944 -4.7184166 -3.2160040 36.5076788 26.5113927 24.7547249 17.1171417
1.7123515 0.0856207 0.9173368 0.235073 -0.109752 0.001984 -2.6948997 -5.8230706 -4.3041826 29.6115335 27.7876490 27.7198379 18.6883494
1.9540876 0.0378477 0.6956929 0.233210 -0.203293 0.003447 -0.8943570 -1.0249112 -0.2108617 49.8108906 25.3779680 7.3274298 14.5017113
1.8933976 0.0667058 0.7614061 0.245606 -0.176586 0.005219 -2.8426619 -3.9764247 -1.4222684 43.6768322 27.2900217 13.4846957 15.9034056
1.8176878 0.0921914 0.8161845 0.253316 -0.146837 0.004689 -3.4636084 -6.0352790 -2.8249619 37.0780014 28.8434962 18.3918969 17.3512589
1.7303057 0.1144862 0.8593284 0.257066 -0.116520 0.002089 -3.1818051 -7.0546254 -3.8572214 30.6805356 30.0349877 22.1063838 18.7744480
1.8785397 0.0949148 0.6899829 0.263950 -0.169657 0.002397 -3.6289466 -5.6302919 -0.9130658 42.0107283 29.2692114 6.5411079 16.4281835
1.8143130 0.1188075 0.7498596 0.271549 -0.145241 0.003003 -3.9293306 -7.3517821 -2.1128285 36.6238325 30.7167750 12.0271819 17.5908067
1.7355812 0.1400515 0.7987301 0.275275 -0.118862 0.001605 -3.5549103 -8.2331356 -3.1356096 30.9123204 31.9044033 16.3311324 18.9709645
1.7964073 0.1414837 0.6841825 0.285002 -0.138859 0.001320 -4.2078751 -8.6028280 -1.1410815 34.9984176 32.2547364 5.7685893 18.2081070
1.7285870 0.1616347 0.7376594 0.289067 -0.117150 0.000807 -3.7871671 -9.3117389 -2.2026294 30.2578980 33.2700872 10.5384062 19.3166875
1.7099401 0.1790812 0.6780804 0.298161 -0.111913 -0.000042 -3.5159172 -9.3320129 -1.0272070 29.1814245 34.8742430 5.2043681 19.7080338
1.6783936 0.1933774 0.6212299 0.303394 -0.102292 -0.000000 -4.1870820 -12.3265531 0.0000001 26.5505515 33.9141400 -0.0000005 20.2926926
1.7630027 0.1608448 0.6212299 0.293353 -0.127749 -0.000000 -3.9491692 -9.0206187 0.0000001 32.5539625 33.4676737 -0.0000002 18.7541139
1.8465143 0.1195182 0.6212299 0.276784 -0.156752 -0.000000 -4.1450081 -7.2804167 0.0000000 39.0870641 30.8781756 -0.0000001 17.2287614
1.9255539 0.0681066 0.6212299 0.251401 -0.189602 -0.000000 -2.4816775 -3.2748029 0.0000000 46.6204838 27.5447116 0.0000001 15.2678144
1.9969109 0.0053622 0.6212299 0.214981 -0.224179 -0.000000 2.1234411 2.0278913 0.0000000 54.7925017 23.0031903 0.0000002 13.3102465
2.0566177 -0.0693027 0.6212299 0.165980 -0.257092 -0.000000 10.8183753 6.9625085 0.0000001 62.9807261 17.1506488 0.0000004 11.2089123
2.1000419 -0.1550404 0.6212299 0.104323 -0.283159 -0.000000 22.0891037 8.1273917 0.0000002 69.9634156 9.8612761 0.0000005 9.5259578
2.1226256 -0.2488321 0.6212299 0.032779 -0.296655 -0.000000 31.5062964 3.5098500 0.0000004 74.5546282 1.4095346 0.0000008 8.3130932
2.1212513 -0.3453999 0.6212299 -0.042685 -0.293554 -0.000000 33.5300182 -4.7983392 0.0000005 75.7868731 -7.8416200 0.0000007 8.1933535
2.0955751 -0.4382319 0.6212299 -0.114609 -0.273535 -0.000000 27.1388065 -11.2617456 0.0000005 73.1864362 -17.4398010 0.0000009 8.9012761
2.0483254 -0.5214017 0.6212299 -0.176593 -0.240079 -0.000000 16.3732737 -11.9385855 0.0000003 66.7756941 -26.5469473 0.0000007 10.4951731
1.9843140 -0.5910682 0.6212299 -0.225392 -0.198988 -0.000000 6.8070458 -7.6405182 0.0000001 57.6293464 -34.0864733 0.0000008 12.3331208
1.9089420 -0.6458320 0.6212299 -0.261051 -0.155964 -0.000000 0.9199819 -1.5243056 0.0000000 47.3817365 -39.4023755 0.0000007 14.3558778
1.8271607 -0.6861849 0.6212299 -0.285042 -0.114887 -0.000000 -1.4327097 3.5110835 -0.0000000 37.4413999 -42.6799309 0.0000008 16.0490842
1.7437438 -0.7136073 0.6212299 -0.300654 -0.077680 -0.000000 -1.9963334 7.6143160 -0.0000001 28.7011297 -44.9285179 0.0000007 17.7363892
1.6856095 -0.7232587 0.5616623 -0.304231 -0.057294 0.001647 -1.9738474 10.2957135 1.1107975 23.2931922 -44.2959171 -5.7328362 18.5885533
1.7019210 -0.7085640 0.4971395 -0.294955 -0.064956 0.003217 -1.6770980 7.5641236 1.8745111 25.1660166 -43.3700161 -12.8676769 18.1403745
1.7088419 -0.6853842 0.4305706 -0.279849 -0.070170 0.004722 -1.5333886 6.1780867 2.5086944 25.9961665 -41.2447958 -19.9555328 17.9558996
1.7044757 -0.6541479 0.3651502 -0.259718 -0.072071 0.005475 -1.3028208 4.8307623 2.8553595 26.0993556 -38.2432455 -26.8525401 17.6801952
1.6879874 -0.6157983 0.3035639 -0.234558 -0.069814 0.005289 -1.0582020 3.7196495 3.0216217 25.1178127 -34.4447839 -33.1068351 17.7348091
1.6594003 -0.5717953 0.2481179 -0.206024 -0.063145 0.004102 -0.8088743 2.7811952 3.0160953 23.3090714 -30.1537103 -38.4365273 17.7737486
1.6194376 -0.5238865 0.2004941 -0.175079 -0.052216 0.002282 -0.5978168 2.0851966 2.9836759 20.7845220 -25.6598469 -42.7416378 18.1266431
1.5693021 -0.4738571 0.1616442 -0.143577 -0.037799 0.000237 -0.4158836 1.5447214 2.9223598 17.8842211 -21.1827503 -45.9911054 18.4402878
1.5104350 -0.4233146 0.1318145 -0.112392 -0.020985 -0.001510 -0.2674484 1.1447558 2.9101547 14.7243262 -16.9295485 -48.3030883 19.0492912
1.4443142 -0.3735639 0.1106768 -0.082913 -0.003173 -0.002604 -0.1373284 0.8075767 2.8573917 11.6619122 -12.9783599 -49.8250848 19.5024603
1.3723274 -0.3255701 0.0975066 -0.055545 0.014382 -0.002859 -0.0291393 0.5407848 2.8496128 8.7162628 -9.3925700 -50.7525391 20.2051705
1.2957312 -0.2799924 0.0913426 -0.031006 0.030540 -0.002326 0.0606592 0.3059897 2.7680334 6.0778062 -6.2006324 -51.2503761 20.6981800
1.2157117 -0.2372631 0.0911096 -0.009404 0.044421 -0.001210 0.1409805 0.1221930 2.9057396 3.7356606 -3.3371262 -51.3403605 21.3825717
1.1335176 -0.1976732 0.0956775 0.008924 0.055526 0.000638 0.1714279 -0.0426488 2.4591879 1.8230288 -0.8692470 -51.4944770 21.7768946
1.0512461 -0.1616902 0.1037844 0.024418 0.063440 0.003513 0.3678310 -0.3014069 4.2644243 0.0745607 1.3472375 -51.5242975 22.4317226
1.7099401 0.1790812 0.5643794 0.298161 -0.111913 0.000042 -3.5159167 -9.3320117 1.0272070 29.1814247 34.8742442 -5.2043689 19.7080336
1.7285870 0.1616347 0.5048003 0.289067 -0.117150 -0.000807 -3.7871673 -9.3117394 2.2026296 30.2578979 33.2700866 -10.5384065 19.3166876
1.7355812 0.1400515 0.4437297 0.275275 -0.118862 -0.001605 -3.5549100 -8.2331348 3.1356095 30.9123209 31.9044038 -16.3311332 18.9709641
1.7303057 0.1144862 0.3831313 0.257066 -0.116520 -0.002089 -3.1818054 -7.0546258 3.8572218 30.6805358 30.0349871 -22.1063839 18.7744480
1.7123515 0.0856207 0.3251230 0.235073 -0.109752 -0.001984 -2.6948995 -5.8230700 4.3041823 29.6115340 27.7876490 -27.7198389 18.6883490
1.6819313 0.0544815 0.2717135 0.210488 -0.098548 -0.001068 -2.1599225 -4.6430849 4.4793540 27.7010260 25.2368344 -32.9543370 18.7770606
1.6398748 0.0222886 0.2245386 0.184552 -0.083343 0.000476 -1.6500459 -3.6173382 4.4601844 25.0900208 22.4431957 -37.6118851 18.9785896
1.5874851 -0.0097126 0.1846937 0.158618 -0.064960 0.002383 -1.1913251 -2.7491824 4.2834128 21.9334590 19.5135343 -41.5452520 19.2962857
1.5263296 -0.0404012 0.1526893 0.133612 -0.044467 0.004242 -0.8136593 -2.0662318 4.0537570 18.4839221 16.5207946 -44.7257627 19.7046845
1.4580370 -0.0688769 0.1285093 0.110343 -0.023183 0.005676 -0.5005444 -1.5025937 3.7272880 14.9194731 13.6195142 -47.1608364 20.1507180
1.3841435 -0.0944976 0.1117349 0.089034 -0.002101 0.006446 -0.2662401 -1.0915530 3.4680637 11.4461265 10.7713192 -48.9220326 20.6245853
1.3059934 -0.1168615 0.1016795 0.069903 0.017676 0.006372 -0.0856937 -0.7658186 3.1953256 8.1569518 8.1093760 -50.0861172 21.0954592
1.2246453 -0.1357572 0.0975173 0.052751 0.035442 0.005645 0.0483666 -0.5137937 2.9413119 5.1770795 5.6190127 -50.8172166 21.5617579
1.1405347 -0.1509768 0.0983997 0.037557 0.050702 0.004345 0.1299641 -0.2843703 2.4140361 2.5037603 3.3765489 -51.5053099 21.9639257
1.7964073 0.1414837 0.5582773 0.285002 -0.138859 -0.001320 -4.2078758 -8.6028292 1.1410818 34.9984172 32.2547351 -5.7685890 18.2081071
1.8143130 0.1188075 0.4926002 0.271549 -0.145241 -0.003003 -3.9293308 -7.3517824 2.1128287 36.6238327 30.7167745 -12.0271821 17.5908066
1.8176878 0.0921914 0.4262753 0.253316 -0.146837 -0.004689 -3.4636086 -6.0352792 2.8249621 37.0780019 28.8434957 -18.3918966 17.3512591
1.8065190 0.0619643 0.3616431 0.230309 -0.142773 -0.005612 -2.8606944 -4.7184164 3.2160040 36.5076796 26.5113925 -24.7547251 17.1171416
1.7810390 0.0290727 0.3011063 0.204216 -0.133172 -0.005496 -2.2881818 -3.6331359 3.4061234 34.7022496 23.8723040 -30.7490905 17.2586713
1.7421158 -0.0051761 0.2467786 0.176124 -0.118087 -0.004342 -1.7641165 -2.7466344 3.4331265 31.9604815 20.9275376 -36.1432545 17.4056719
1.6912097 -0.0393630 0.2001912 0.148057 -0.098615 -0.002413 -1.3490332 -2.1040681 3.4520679 28.3525597 17.8396493 -40.7237129 17.9030951
1.6301410 -0.0721728 0.1621635 0.120965 -0.075861 -0.000232 -0.9827563 -1.5771683 3.3839730 24.3220863 14.6916430 -44.4081605 18.3218496
1.5608082 -0.1025391 0.1328444 0.096120 -0.051455 0.001743 -0.6846482 -1.1743101 3.3212846 20.0135588 11.6217466 -47.2013570 18.9953012
1.4849494 -0.1296975 0.1118583 0.073607 -0.026660 0.003095 -0.4247986 -0.8309310 3.1675031 15.8099401 8.6588450 -49.1683808 19.5149058
1.4039592 -0.1531606 0.0984957 0.053884 -0.002898 0.003618 -0.2190546 -0.5672627 3.0460163 11.7417574 5.9354392 -50.4311518 20.2256343
1.3187035 -0.1726228 0.0918857 0.036427 0.019135 0.003313 -0.0501713 -0.3396243 2.7990408 8.0945567 3.3918471 -51.1810252 20.6948113
1.2291614 -0.1877477 0.0911665 0.021600 0.038660 0.002276 0.0759994 -0.1706582 2.6168450 4.6975041 1.1284975 -51.5581876 21.3888534
1.8785397 0.0949148 0.5524768 0.263950 -0.169657 -0.002397 -3.6289467 -5.6302921 0.9130658 42.0107284 29.2692110 -6.5411079 16.4281833
1.8933976 0.0667058 0.4810537 0.245606 -0.176586 -0.005219 -2.8426601 -3.9764221 1.4222675 43.6768346 27.2900242 -13.4846965 15.9034055
1.8913300 0.0348170 0.4098256 0.222046 -0.176821 -0.007371 -1.9937668 -2.5552439 1.5210067 43.8873611 24.8720461 -20.6247518 15.5884736
1.8726199 0.0000042 0.3417220 0.194351 -0.169928 -0.008398 -1.3448128 -1.6013886 1.4234776 42.5481648 22.1091732 -27.4916757 15.5840555
1.8381625 -0.0364079 0.2794639 0.164223 -0.155945 -0.007969 -0.9924751 -1.1123403 1.4023841 39.7910415 18.9982412 -33.7994915 15.8369977
1.7895875 -0.0728469 0.2251705 0.133769 -0.135861 -0.006309 -0.8323525 -0.8887062 1.5530766 35.8567654 15.7447647 -39.2327325 16.3243290
1.7290322 -0.1077974 0.1801136 0.104566 -0.111090 -0.003983 -0.7679091 -0.7899399 1.9081049 31.1355189 12.4026903 -43.6024235 16.9618732
1.6587790 -0.1400127 0.1447018 0.077943 -0.083548 -0.001618 -0.6620175 -0.6630385 2.2520659 26.0179538 9.1818067 -46.8898048 17.7149320
1.5809147 -0.1686009 0.1186504 0.054361 -0.054934 0.000235 -0.5216401 -0.5137294 2.5667582 20.8697121 6.1154610 -49.1569528 18.4951853
1.4970842 -0.1929946 0.1012203 0.034009 -0.026861 0.001238 -0.3394871 -0.3323206 2.6957103 15.9549807 3.3176874 -50.5717056 19.2636642
1.4083089 -0.2128390 0.0914572 0.016740 -0.000388 0.001297 -0.1635986 -0.1625319 2.7577374 11.3975014 0.7672031 -51.3176721 20.0313080
1.3147945 -0.2277988 0.0883761 0.002249 0.023485 0.000444 -0.0041891 -0.0114609 2.7100547 7.3411492 -1.4311348 -51.5579356 20.7118737
1.9540876 0.0378477 0.5467669 0.233210 -0.203293 -0.003447 -0.8943574 -1.0249117 0.2108618 49.8108904 25.3779674 -7.3274293 14.5017114
1.9635898 0.0039553 0.4700415 0.209156 -0.209229 -0.006745 0.7190743 0.7266916 -0.3394298 51.3128401 22.8074536 -15.1363923 13.8838089
1.9539547 -0.0329813 0.3946503 0.180272 -0.206599 -0.009063 1.6469550 1.4835978 -1.1946275 50.8105410 19.8765479 -22.9146427 13.8262270
1.9258854 -0.0716603 0.3240938 0.148186 -0.194874 -0.009669 1.7603567 1.4221834 -1.7877754 48.4033994 16.5739497 -30.2776857 13.9536085
1.8810747 -0.1103833 0.2612945 0.115518 -0.175203 -0.008632 1.2041536 0.8725871 -1.6501089 44.2623054 13.1531597 -36.7432385 14.5795884
1.8219867 -0.1474373 0.2081925 0.084082 -0.148912 -0.006494 0.4800225 0.3089258 -0.8801490 38.9249250 9.6174820 -42.0061464 15.2797208
1.7513879 -0.1813938 0.1656299 0.055790 -0.118556 -0.003944 -0.0897089 -0.0497440 0.2228434 32.8989793 6.2624058 -45.9892194 16.2891530
1.6718747 -0.2112384 0.1335104 0.031081 -0.086107 -0.001769 -0.3501554 -0.1539665 1.2203740 26.7504616 3.0876686 -48.7122141 17.1679438
1.5855368 -0.2363481 0.1111050 0.010452 -0.053733 -0.000385 -0.3851947 -0.0994600 2.0212551 20.7574241 0.2580596 -50.3761550 18.2427255
1.4937746 -0.2563679 0.0973569 -0.006714 -0.022829 -0.000083 -0.2645607 0.0335567 2.4321837 15.3119474 -2.2429714 -51.2085261 19.0536682
1.3972179 -0.2710360 0.0911276 -0.020337 0.005492 -0.000780 -0.1042285 0.1795796 2.7032656 10.3643464 -4.3807124 -51.4270993 20.0129275
2.0197924 -0.0307836 0.5413285 0.190712 -0.237088 -0.004028 5.3132992 4.2782202 -1.1922481 57.9692665 20.2447941 -8.1907021 12.4769204
2.0215530 -0.0700240 0.4600179 0.160822 -0.239986 -0.007437 7.3164521 4.9890109 -3.3155925 58.8306277 17.0489560 -16.7544840 12.0887947
2.0022058 -0.1110521 0.3815912 0.127258 -0.232161 -0.009194 7.3822859 4.2400138 -5.1908563 57.1839028 13.5640238 -25.1631484 12.1822012
1.9631809 -0.1520519 0.3099537 0.092523 -0.214026 -0.009065 5.7859001 2.7394482 -5.7600442 53.2269449 9.9221466 -32.7879718 12.7603614
1.9071198 -0.1911216 0.2479830 0.059246 -0.187257 -0.007341 3.5236073 1.3025470 -4.7968265 47.4506957 6.2209349 -39.2170234 13.6604975
1.8372892 -0.2266560 0.1972121 0.029411 -0.154625 -0.004879 1.5673890 0.3920030 -2.9034135 40.5719081 2.7164272 -44.1276711 14.7722021
1.7569143 -0.2575358 0.1579238 0.003996 -0.118789 -0.002533 0.3288788 0.0306575 -0.8444137 33.2943734 -0.5216667 -47.5498419 15.9709245