# volRat = 0.650000
# viscRat = 5.000000
# alpha = 0.500000
# shRate = 3.182000
# tnum = 5900
# time = 5.754972
VARIABLES = X, Y, Z, U, V, W, F_B0, F_B1, F_B2, F_0, F_1, F_2, T
ZONE N=2562 E=5120 F=FEPOINT ET=TRIANGLE
1.6057406 0.2153238 0.6212299 0.306303 -0.087883 -0.000001 2.5506531 8.9973298 0.0000012 24.2605722 42.0629513 0.0006637 21.1474444
-1.6547952 0.7304866 0.6212299 0.310438 0.047492 -0.000005 -1.9659105 12.6289923 0.0000030 -21.5067867 51.8188957 0.0024452 18.9539565
1.6547951 -0.7304869 0.6212299 -0.310438 -0.047492 0.000004 1.9659096 -12.6289909 0.0000029 21.5067772 -51.8188996 -0.0020238 18.9539620
-1.6057406 -0.2153242 0.6212299 -0.306303 0.087883 0.000000 -2.5506536 -8.9973323 0.0000015 -24.2605784 -42.0629563 -0.0003191 21.1474454
0.9727267 -0.1195120 1.1269036 0.042007 0.067651 -0.004075 -1.6405282 2.4002031 18.0054481 -1.7074748 5.3280045 60.0384036 22.6871362
0.9727267 -0.1195120 0.1155562 0.042008 0.067635 0.004039 -1.6374208 2.3956878 -17.9714268 -1.7069584 5.3402158 -60.0024239 22.6843345
-0.9727267 0.1195119 1.1269036 -0.042005 -0.067638 -0.004022 1.6357534 -2.3931990 17.9530170 1.7049012 -5.3373689 59.9844895 22.6837272
-0.9727267 0.1195119 0.1155562 -0.042009 -0.067648 0.004091 1.6419222 -2.4022667 -18.0208216 1.7092047 -5.3304941 -60.0533653 22.6877643
-0.1089370 0.3649988 0.8436761 0.179343 -0.044439 0.009269 -9.5294325 -41.5184810 -25.1242932 0.9592926 7.5207270 8.6270344 25.4225435
0.1089374 -0.3649970 0.8436750 -0.178427 0.048134 0.007141 7.0179286 30.5759405 -18.5036916 -3.4729793 -18.2922459 15.0107055 25.3848512
-0.1089375 0.3649965 0.3987850 0.178354 -0.048448 -0.006962 -6.8189401 -29.7089505 17.9791446 3.6695111 19.1478464 -15.5105806 25.3802447
0.1089369 -0.3649989 0.3987836 -0.179271 0.044750 -0.009091 9.3318455 40.6575548 24.6033809 -1.1544354 -8.3704532 -9.1233967 25.4180591
1.6291679 0.2071756 0.6697743 0.305373 -0.092264 -0.000576 -3.7323107 -12.3974643 -1.0494557 24.0134465 35.6309505 3.9961794 20.9738720
1.6467906 0.1944412 0.7229420 0.299421 -0.096163 -0.000879 -3.2516665 -10.1500589 -1.9611984 25.3418882 35.3814674 9.0997458 20.5295089
1.6559079 0.1774261 0.7788107 0.289507 -0.097632 -0.000976 -3.1118476 -9.2406045 -2.8956378 25.8670981 34.3024590 14.2625107 20.3559088
1.6547241 0.1564991 0.8351732 0.275260 -0.095978 -0.001090 -2.8583740 -8.1979053 -3.6764919 25.9383277 32.8579357 19.5695334 20.0240855
1.6423029 0.1321902 0.8900997 0.257639 -0.090901 -0.001526 -2.5366200 -7.1564135 -4.3014027 25.2257729 31.0216643 24.7905814 20.0089347
1.6183889 0.1052850 0.9417387 0.236973 -0.082134 -0.002455 -2.1207804 -6.0163967 -4.6590563 23.9053131 28.8464446 29.7760770 19.8934931
1.5833421 0.0767629 0.9884929 0.214530 -0.069982 -0.003843 -1.6809268 -4.9256462 -4.7910496 21.9235931 26.4413068 34.3402763 20.0741938
1.5380287 0.0476879 1.0291578 0.191088 -0.054835 -0.005560 -1.2430509 -3.8938807 -4.6790826 19.5028573 23.8359262 38.4048290 20.1628350
1.4836656 0.0190836 1.0630023 0.167891 -0.037653 -0.007284 -0.8637029 -3.0318402 -4.4552944 16.6747896 21.1672879 41.8210972 20.5349776
1.4216553 -0.0081682 1.0897695 0.145376 -0.019206 -0.008769 -0.5479457 -2.3176389 -4.1446696 13.7416445 18.4115979 44.5977101 20.7347851
1.3534472 -0.0333902 1.1096090 0.124345 -0.000674 -0.009745 -0.3032265 -1.7680719 -3.8485521 10.7297013 15.7430564 46.7512031 21.2035390
1.2804567 -0.0561269 1.1229802 0.104780 0.017111 -0.010028 -0.1152836 -1.3334316 -3.5529865 7.8822239 13.1201007 48.3516669 21.4552786
1.2040765 -0.0761287 1.1305520 0.086920 0.033313 -0.009711 0.0234803 -0.9367845 -3.0942710 5.2009898 10.7281201 49.7782335 21.9217187
1.1257649 -0.0933247 1.1331333 0.070519 0.047507 -0.008379 0.1714684 -0.9779104 -4.0927680 2.8717443 8.0750788 49.5355482 22.1405755
1.0477443 -0.1077211 1.1316257 0.055751 0.058826 -0.006941 0.4639071 -1.1756808 -6.5149777 0.8076126 5.8010628 48.9837433 22.5927154
1.7661599 -0.7024212 0.6899995 -0.294028 -0.089962 -0.002522 -1.7808547 5.8316117 -0.8179876 30.9997895 -43.6969712 7.4547643 17.2881562
1.7831001 -0.6813881 0.7609955 -0.280410 -0.099545 -0.004516 -1.6651814 4.7443745 -1.4439189 32.9440261 -41.8252997 15.1443444 16.8908319
1.7871458 -0.6517027 0.8321029 -0.260804 -0.105033 -0.006156 -1.2949164 3.3025360 -1.6443157 33.7802783 -38.8798971 23.0115639 16.5719007
1.7776797 -0.6139554 0.9004295 -0.235605 -0.105630 -0.006729 -0.9404500 2.1929289 -1.6062727 33.2031897 -34.9587395 30.2762530 16.4763632
1.7545761 -0.5695277 0.9631863 -0.205961 -0.100800 -0.006100 -0.6767485 1.4680939 -1.5074994 31.4461619 -30.3626676 36.6279913 16.5437273
1.7185126 -0.5202929 1.0181050 -0.173229 -0.090519 -0.004538 -0.5191182 1.0629882 -1.5020564 28.6505959 -25.4524396 41.7922105 16.8554883
1.6708116 -0.4682880 1.0637334 -0.139313 -0.075440 -0.002453 -0.4468860 0.8736042 -1.7040152 25.1639749 -20.4702402 45.6899248 17.3151827
1.6131528 -0.4154118 1.0994954 -0.105629 -0.056795 -0.000493 -0.3821242 0.7180570 -1.9840735 21.3323206 -15.7457060 48.4038558 17.9180559
1.5472838 -0.3632287 1.1255641 -0.073497 -0.036199 0.000838 -0.3101214 0.5593304 -2.3250017 17.4659516 -11.3406781 50.1329600 18.6032010
1.4748163 -0.3128997 1.1426475 -0.043701 -0.015156 0.001265 -0.2102769 0.3552815 -2.5393693 13.7583973 -7.4079497 51.1113958 19.3365192
1.3971201 -0.2652079 1.1517651 -0.016953 0.004827 0.000721 -0.1073722 0.1472371 -2.7004341 10.3894412 -3.8882639 51.5491274 20.0544791
1.3152900 -0.2206338 1.1540824 0.006531 0.022712 -0.000661 -0.0095361 -0.0515790 -2.7156452 7.3953623 -0.8075605 51.6314626 20.7591978
1.2301117 -0.1794343 1.1507863 0.026586 0.037806 -0.002658 0.0687761 -0.2145091 -2.5945661 4.7938167 1.8760454 51.6153120 21.4292542
1.1417862 -0.1417640 1.1430211 0.043119 0.049778 -0.004949 0.1180039 -0.3192032 -2.3182497 2.6097625 4.2372737 51.5892783 22.0117142
1.8512179 -0.6693864 0.6962992 -0.275033 -0.128742 -0.002745 -0.9867046 2.1107093 -0.3601062 40.3184461 -41.5066311 8.4042220 15.6704666
1.8666470 -0.6411590 0.7730478 -0.256486 -0.139515 -0.005328 -0.1638975 0.3049207 -0.1142843 42.4316402 -38.5968978 17.2168897 15.0654474
1.8659025 -0.6045093 0.8483273 -0.231438 -0.143906 -0.006690 0.4541723 -0.7500791 0.4687874 42.6319969 -34.7158331 25.6117713 14.9251636
1.8491840 -0.5605241 0.9188902 -0.201406 -0.141700 -0.006764 0.7331003 -1.0872162 1.0268947 41.1381606 -29.9225948 33.1680863 14.8736975
1.8172776 -0.5110892 0.9818632 -0.167445 -0.132373 -0.005617 0.6080577 -0.8128013 1.1177565 38.0342258 -24.7530458 39.4281496 15.2804253
1.7717319 -0.4584309 1.0352097 -0.132186 -0.116832 -0.003582 0.2762763 -0.3306328 0.6613368 33.9115812 -19.4282680 44.1769117 15.7377102
1.7145860 -0.4046890 1.0779352 -0.096835 -0.096239 -0.001526 -0.0654641 0.0683829 -0.2059635 29.1609123 -14.3919933 47.5232904 16.5713470
1.6479905 -0.3516307 1.1100027 -0.063254 -0.072611 0.000016 -0.2633627 0.2243726 -1.1164941 24.3067859 -9.7247299 49.6376770 17.3213445
1.5738978 -0.3005382 1.1320738 -0.032128 -0.047791 0.000581 -0.3257556 0.1838888 -1.9462152 19.5919346 -5.5699009 50.8059731 18.3064273
1.4938822 -0.2522349 1.1452224 -0.004360 -0.023631 0.000099 -0.2670143 0.0131063 -2.4346743 15.3238082 -1.8965941 51.3095526 19.0929115
1.4090480 -0.2071804 1.1506930 0.020103 -0.001294 -0.001365 -0.1694548 -0.1962618 -2.7759509 11.4531225 1.2527362 51.3581454 20.0651210
1.3199263 -0.1655855 1.1497464 0.040691 0.018159 -0.003503 -0.0576417 -0.3879605 -2.8454831 8.1760251 4.0038668 51.1416964 20.7303927
1.2261823 -0.1275546 1.1435525 0.057749 0.034437 -0.005972 0.0429941 -0.6056205 -3.1424979 5.2784440 6.3090700 50.5677417 21.6087104
1.9312188 -0.6231306 0.7017073 -0.246505 -0.170905 -0.003049 2.4092347 -3.4795107 0.7373279 50.4768478 -37.3649629 9.4070289 13.7904422
1.9422925 -0.5875216 0.7831483 -0.222006 -0.180932 -0.005112 3.8764183 -4.8078626 2.2983349 52.1183579 -33.5246843 18.8775020 13.3575029
1.9345076 -0.5441553 0.8615107 -0.191539 -0.182617 -0.005946 4.3889049 -4.7140133 3.8969071 51.3107851 -28.6727946 27.7552770 13.2428692
1.9087244 -0.4948067 0.9331093 -0.156835 -0.175423 -0.005174 3.8299729 -3.5453715 4.6586529 48.3051884 -23.3512833 35.2945611 13.5580362
1.8667039 -0.4418164 0.9951104 -0.120245 -0.160162 -0.003356 2.5714074 -2.0038783 4.1352205 43.6327049 -17.7901226 41.2246726 14.1877576
1.8108997 -0.3875479 1.0458974 -0.083632 -0.138176 -0.001284 1.2655191 -0.7820798 2.6639474 37.9781846 -12.5005842 45.4675217 15.0820494
1.7439771 -0.3339770 1.0850679 -0.048839 -0.111767 0.000340 0.2971387 -0.1244273 0.8241058 32.0183935 -7.6155012 48.2239842 16.1007266
1.6683713 -0.2825181 1.1131546 -0.016876 -0.083233 0.000972 -0.2188962 0.0314403 -0.8169827 26.1873278 -3.2999058 49.7750922 17.2008066
1.5860137 -0.2340435 1.1312539 0.011636 -0.054758 0.000417 -0.3870790 -0.1089348 -2.0217343 20.7935233 0.4582475 50.4774476 18.2812250
1.4982103 -0.1890073 1.1407114 0.036361 -0.027974 -0.001224 -0.3461705 -0.3574011 -2.7115189 16.0208637 3.6718976 50.6061990 19.3036524
1.4055748 -0.1475989 1.1429027 0.057279 -0.004063 -0.003688 -0.2283526 -0.6105686 -3.0753996 11.8324431 6.4399586 50.3910435 20.2716198
1.3079171 -0.1099057 1.1391234 0.074187 0.016480 -0.006631 -0.0941666 -0.8140717 -3.1852651 8.2665785 8.7548411 50.0173743 21.1416740
2.0024109 -0.5624008 0.7063185 -0.205899 -0.213384 -0.002601 9.3024428 -8.9801405 2.4916795 60.3378545 -31.1395973 10.1610087 11.8766693
2.0062826 -0.5198477 0.7911619 -0.175370 -0.220522 -0.003937 10.9006832 -8.7398088 5.7340941 60.8889252 -26.3730041 20.1320128 11.4837208
1.9891536 -0.4709461 0.8710844 -0.140062 -0.216859 -0.003590 10.0693114 -6.6042086 8.0224537 58.4886757 -21.0314672 29.0413984 11.7844626
1.9527329 -0.4180722 0.9421962 -0.102543 -0.203088 -0.001997 7.4966918 -3.8383875 8.2620922 53.7223435 -15.4120002 36.3692730 12.3657852
1.8997973 -0.3637635 1.0019606 -0.065062 -0.180477 0.000100 4.3866990 -1.5570869 6.4453859 47.3683812 -10.0263750 41.8326284 13.4699309
1.8335782 -0.3101905 1.0493535 -0.029690 -0.151891 0.001824 1.8962803 -0.3145252 3.6730686 40.3617752 -5.0276480 45.5136351 14.6086335
1.7571237 -0.2588980 1.0846006 0.002641 -0.119940 0.002427 0.3408531 0.0283626 0.8749837 33.3395798 -0.6611494 47.7325242 16.0063035
1.6728907 -0.2108079 1.1087337 0.031050 -0.087434 0.001768 -0.3450595 -0.1518794 -1.1974120 26.8312035 3.1291252 48.8368469 17.1918864
1.5825732 -0.1663679 1.1231670 0.055624 -0.056315 -0.000186 -0.5275885 -0.5274614 -2.5699928 20.9672524 6.3239236 49.2060336 18.5238606
1.4870803 -0.1257362 1.1294103 0.076043 -0.028035 -0.003060 -0.4366426 -0.8678568 -3.1938275 15.9215160 9.0225389 49.1302843 19.5387773
1.3865587 -0.0889578 1.1289050 0.092501 -0.003417 -0.006497 -0.2802160 -1.1542000 -3.5156808 11.5645138 11.2655578 48.7927973 20.6591732
2.0599684 -0.4873327 0.7097833 -0.152001 -0.251605 -0.001615 19.1159462 -11.5303713 4.6434639 68.4926926 -22.9324741 10.6101247 10.1296109
2.0540602 -0.4392947 0.7964291 -0.116464 -0.253103 -0.001595 19.0629668 -8.7791003 9.2098464 67.3692668 -17.6982935 20.6560574 10.1425435
2.0258177 -0.3870860 0.8761664 -0.078412 -0.242181 -0.000104 15.2641473 -4.9007773 11.2930786 63.0892265 -12.2219130 29.3737519 10.7573340
1.9779846 -0.3333460 0.9452730 -0.040648 -0.220426 0.002132 9.8256484 -1.6776468 10.1558056 56.5659163 -6.8789982 36.2512799 11.8850559
1.9142233 -0.2803955 1.0017663 -0.005147 -0.190744 0.003949 4.9129290 0.0320975 6.8320878 48.7793060 -1.9053065 41.1967936 13.2777134
1.8382334 -0.2298897 1.0452834 0.026724 -0.156255 0.004673 1.6241941 0.3781192 3.0034058 40.7310453 2.4299911 44.3511953 14.7973013
1.7531204 -0.1827908 1.0766000 0.054532 -0.120341 0.003889 -0.0596803 -0.0323833 -0.1474925 33.0692660 6.1702585 46.1526108 16.3065030
1.6611220 -0.1395304 1.0971047 0.078085 -0.085319 0.001672 -0.6582757 -0.6562841 -2.2183470 26.1848273 9.2637044 46.9731930 17.7308907
1.5635836 -0.1002220 1.1084014 0.097555 -0.053134 -0.001640 -0.6973108 -1.1988280 -3.3310196 20.1702694 11.8644402 47.1816855 19.0174925
1.4610550 -0.0648464 1.1120784 0.112942 -0.024742 -0.005595 -0.5180393 -1.5583236 -3.7624409 15.0598278 14.0088817 47.0389732 20.1890821
2.0988031 -0.4002388 0.7116649 -0.086161 -0.279912 -0.000092 28.1489213 -8.5990937 6.3926611 73.4591124 -13.5377582 10.6570191 8.8796226
2.0813414 -0.3492734 0.7982595 -0.048064 -0.273545 0.001441 24.4601675 -4.1745130 11.1803120 70.4360072 -8.3357034 20.4587518 9.2841777
2.0413409 -0.2967637 0.8760950 -0.010400 -0.254337 0.003859 16.9826931 -0.4595992 12.0158355 64.4147889 -3.1964013 28.7319844 10.4561400
1.9824987 -0.2451081 0.9419610 0.024503 -0.225102 0.006061 9.3549285 1.3056768 9.3410127 56.4920898 1.5976170 35.0876216 11.8734912
1.9089994 -0.1960315 0.9945536 0.055322 -0.189521 0.007073 3.6943998 1.2841623 5.0120846 47.7766826 5.8121046 39.4743301 13.6540175
1.8246112 -0.1505167 1.0341004 0.081661 -0.151267 0.006394 0.5719679 0.3568638 1.0420622 39.2288512 9.4008503 42.2110496 15.2601900
1.7322111 -0.1089714 1.0617680 0.103628 -0.113339 0.004023 -0.7413600 -0.7505234 -1.8239910 31.4008752 12.3585189 43.7251352 16.9516626
1.6336912 -0.0714585 1.0791549 0.121420 -0.077922 0.000371 -0.9907679 -1.5777120 -3.3628612 24.5432892 14.8117929 44.4257882 18.3209247
1.5300635 -0.0378925 1.0879508 0.135301 -0.046290 -0.004089 -0.8345543 -2.1102509 -4.0728340 18.6724927 16.7820597 44.6351458 19.7152971
2.1149255 -0.3058179 0.7116402 -0.012858 -0.293302 0.001611 31.2378939 -1.2539137 6.8137456 74.5816981 -4.0030662 10.3682300 8.4953343
2.0855009 -0.2551452 0.7963217 0.024296 -0.278405 0.004394 23.5476036 2.2865871 10.4548465 69.8440732 0.8284738 19.6760883 9.4459832
2.0344980 -0.2054045 0.8708301 0.058249 -0.251786 0.007155 13.9882672 3.5595991 9.7159375 62.4969160 5.3989332 27.3413174 10.9453827
1.9661646 -0.1583306 0.9326471 0.087582 -0.217067 0.008791 6.1635364 2.7605943 6.1041838 53.7616901 9.4368202 33.0559367 12.7170646
1.8847420 -0.1149010 0.9810989 0.112100 -0.178262 0.008514 1.4085180 0.9853259 1.9150217 44.7385741 12.8529559 36.9777133 14.5353077
1.7937361 -0.0754937 1.0168396 0.131878 -0.138719 0.006346 -0.7573677 -0.7902191 -1.3978112 36.2527878 15.6157784 39.3937093 16.2951557
1.6956532 -0.0401262 1.0412695 0.147595 -0.101154 0.002581 -1.3444417 -2.0653916 -3.3905636 28.6714694 17.8659318 40.7778026 17.8830784
1.5920399 -0.0086579 1.0560849 0.159453 -0.067142 -0.002159 -1.2129775 -2.7702588 -4.2781710 22.1859220 19.6790257 41.4860566 19.2975906
2.1068377 -0.2103066 0.7096695 0.061005 -0.289694 0.003078 26.2112403 5.6520115 5.6270986 72.0382369 4.9808062 9.8310256 9.0729572
2.0665334 -0.1629483 0.7908568 0.093856 -0.267642 0.006504 16.8673457 6.1498993 7.4505140 65.9781893 9.2474263 18.4577312 10.3152523
2.0063897 -0.1182954 0.8610466 0.121636 -0.236015 0.008980 8.0263494 4.3812775 5.6043832 57.9333886 13.0430010 25.4046444 12.0907839
1.9306896 -0.0772863 0.9183907 0.144032 -0.198669 0.009575 2.1180062 1.6489149 2.1306897 49.0657861 16.2200412 30.5148868 13.8656188
1.8433718 -0.0402648 0.9626864 0.161557 -0.159438 0.008019 -0.8492188 -0.9260135 -1.1853684 40.3411430 18.8008708 33.9836245 15.7652115
1.7475392 -0.0072164 0.9948588 0.174887 -0.121140 0.004527 -1.7366780 -2.6491411 -3.3281755 32.3948109 20.8724993 36.2359072 17.3508893
1.6453319 0.0220304 1.0164356 0.184627 -0.085915 -0.000213 -1.6708533 -3.6065989 -4.4308707 25.4215278 22.5177575 37.5949203 18.9542943
2.0760330 -0.1197704 0.7060330 0.128507 -0.271079 0.003892 16.1371724 7.7521664 3.4869416 66.4860512 13.0298057 9.1207139 10.4462397
2.0269255 -0.0777674 0.7825978 0.154932 -0.244584 0.007316 8.1820772 5.3241527 3.6752727 59.7663084 16.5395540 16.9329081 11.9630768
1.9599021 -0.0393263 0.8478787 0.175699 -0.211094 0.009022 2.1470823 1.8630982 1.5400952 51.6492422 19.5123276 23.1187722 13.7044539
1.8789117 -0.0047432 0.9005421 0.191172 -0.174051 0.008475 -1.1290919 -1.3046419 -1.1788655 43.2490793 21.8843447 27.6721050 15.4863261
1.7874756 0.0260126 0.9407057 0.202403 -0.136761 0.005705 -2.2366678 -3.4663134 -3.2749256 35.2550450 23.7735489 30.8566688 17.1872466
1.6883316 0.0531106 0.9694802 0.209938 -0.101543 0.001370 -2.1785359 -4.5922738 -4.4298374 28.1243670 25.2525742 32.9621945 18.7316160
2.0262254 -0.0385527 0.7012122 0.184981 -0.242220 0.003989 6.2346134 4.8086554 1.3840763 59.0229071 19.7795726 8.2822056 12.3138020
1.9705848 -0.0026994 0.7724759 0.204520 -0.214247 0.006751 1.2857454 1.2523146 0.5991304 52.2794532 22.4577607 15.2823358 13.7251481
1.8986407 0.0295248 0.8325058 0.218629 -0.181446 0.007469 -1.7352223 -2.1548746 -1.3036936 44.7123906 24.6387821 20.7782756 15.4586453
1.8139325 0.0581735 0.8803155 0.228127 -0.146808 0.005831 -2.7915286 -4.4825994 -3.0827694 37.1729924 26.3824183 24.8632368 17.0062905
1.7196798 0.0833752 0.9162860 0.234062 -0.113117 0.002291 -2.7140080 -5.7328121 -4.2461394 30.1261662 27.7543477 27.7508735 18.6136421
1.9619448 0.0312770 0.6957093 0.228826 -0.208600 0.003477 -0.3828760 -0.4233804 -0.0889509 50.8361877 25.0725559 7.3967574 14.3357019
1.9015805 0.0612101 0.7613067 0.242213 -0.181532 0.005324 -2.5951982 -3.5158603 -1.2766719 44.5790516 27.0753805 13.5853328 15.7566180
1.8259687 0.0879635 0.8157965 0.250986 -0.151198 0.004903 -3.3988303 -5.7566551 -2.7192235 37.8240944 28.7111563 18.4753649 17.2298549
1.7384841 0.1116189 0.8584742 0.255794 -0.120190 0.002395 -3.2066933 -6.9348506 -3.8035910 31.2643361 29.9836623 22.1365880 18.6903400
1.8873875 0.0895333 0.6899093 0.260807 -0.174673 0.002460 -3.4461986 -5.1796177 -0.8510977 42.9298744 29.0779582 6.5891811 16.2688347
1.8232902 0.1144200 0.7495688 0.269269 -0.149741 0.003168 -3.8889957 -7.0671370 -2.0481715 37.4071367 30.5876832 12.0825894 17.4499774
1.7444734 0.1368086 0.7980571 0.273881 -0.122694 0.001863 -3.5905665 -8.0993016 -3.0949087 31.5512896 31.8419589 16.3601079 18.8622202
1.8058716 0.1371909 0.6840073 0.282925 -0.143290 0.001425 -4.2030820 -8.3453490 -1.1146405 35.7813427 32.1518311 5.7869848 18.0713169
1.7380137 0.1582414 0.7371714 0.287711 -0.120991 0.001007 -3.8391975 -9.1869551 -2.1792027 30.9133930 33.2147410 10.5491683 19.2077644
1.7197005 0.1757386 0.6778077 0.297007 -0.115479 0.000075 -3.6340945 -9.3858939 -1.0349027 29.7663553 34.6708852 5.1933783 19.5973048
1.6882782 0.1902844 0.6212299 0.302355 -0.105964 -0.000000 -4.2033188 -12.0446576 0.0000003 27.1968889 34.0647580 0.0008619 20.1915327
1.7727289 0.1568922 0.6212299 0.291619 -0.131915 -0.000001 -3.9772677 -8.8282662 0.0000002 33.2838335 33.3749121 0.0002663 18.6128279
1.8557900 0.1145439 0.6212299 0.274088 -0.161610 -0.000000 -4.0531284 -6.9029761 0.0000001 39.9621522 30.7317503 0.0003347 17.0824679
1.9340334 0.0619759 0.6212299 0.247540 -0.194906 0.000000 -2.1160800 -2.6991036 0.0000000 47.6271736 27.2944363 -0.0000526 15.0893217
2.0041860 -0.0019940 0.6212299 0.209778 -0.229558 -0.000000 2.8997640 2.6624132 -0.0000000 55.8774837 22.6110407 0.0002200 13.1397264
2.0622249 -0.0778256 0.6212299 0.159431 -0.261997 0.000000 11.9885822 7.3367839 -0.0000001 64.0293406 16.5790291 -0.0000666 11.0531955
2.1035163 -0.1644733 0.6212299 0.096647 -0.286957 -0.000000 23.2802608 7.9084080 -0.0000000 70.8358863 9.1062272 0.0000623 9.4323010
2.1236164 -0.2586906 0.6212299 0.024552 -0.298826 0.000000 32.0977818 2.7185636 0.0000001 75.1073235 0.4943509 -0.0000602 8.3046107
2.1196583 -0.3550386 0.6212299 -0.050721 -0.293923 -0.000000 33.1568672 -5.6432820 0.0000001 75.9358338 -8.8778692 0.0000270 8.3010025
2.0916167 -0.4470102 0.6212299 -0.121747 -0.272355 0.000001 26.0721368 -11.5934609 0.0000001 72.8899747 -18.5140974 -0.0001645 9.0876092
2.0424735 -0.5288578 0.6212299 -0.182430 -0.237863 -0.000000 15.2332398 -11.6442415 0.0000000 66.1002963 -27.5389385 -0.0000093 10.7443166
1.9771435 -0.5969969 0.6212299 -0.229857 -0.196336 0.000001 6.0178270 -7.0271627 -0.0000000 56.7330667 -34.8809956 -0.0002634 12.5855699
1.9009950 -0.6502524 0.6212299 -0.264296 -0.153293 -0.000000 0.5428787 -0.9338101 -0.0000000 46.4316845 -39.9918379 -0.0002617 14.6039465
1.8188789 -0.6892589 0.6212299 -0.287341 -0.112516 0.000002 -1.5412336 3.9271057 0.0000000 36.5579957 -43.0711170 -0.0006060 16.2570385
1.7354549 -0.7155676 0.6212299 -0.302252 -0.075470 0.000000 -1.9523331 7.7881306 0.0000001 27.9365046 -45.2699763 -0.0011276 17.9313601
1.6775122 -0.7245475 0.5614161 -0.305462 -0.055667 0.001517 -1.9711062 10.8234159 1.1676200 22.5357064 -44.0251323 -5.7057337 18.7605890
1.6939792 -0.7099548 0.4966747 -0.296258 -0.063291 0.003096 -1.6266451 7.6890853 1.9023760 24.4805363 -43.5859373 -12.9146360 18.3003041
1.7012681 -0.6867393 0.4299063 -0.281175 -0.068497 0.004576 -1.5005404 6.3115118 2.5575993 25.3421622 -41.4739430 -20.0181329 18.1216493
1.6974812 -0.6552850 0.3642930 -0.260925 -0.070566 0.005318 -1.2848399 4.9543795 2.9228061 25.4979988 -38.4501299 -26.9443937 17.8247661
1.6817548 -0.6164986 0.3025114 -0.235521 -0.068578 0.005117 -1.0471255 3.8115329 3.0930045 24.6025625 -34.6136841 -33.2278890 17.8750009
1.6540621 -0.5718185 0.2468743 -0.206566 -0.062244 0.003920 -0.7989410 2.8300623 3.0716836 22.8943263 -30.2545950 -38.5963064 17.8778710
1.6150654 -0.5229938 0.1990871 -0.175035 -0.051661 0.002095 -0.5875480 2.0969551 3.0133024 20.4723436 -25.6768155 -42.9320413 18.2211376
1.5659088 -0.4718390 0.1601353 -0.142789 -0.037583 0.000061 -0.4067191 1.5306220 2.9248430 17.6674228 -21.0790232 -46.2099811 18.5075389
1.5079847 -0.4200165 0.1302989 -0.110763 -0.021035 -0.001662 -0.2615383 1.1165997 2.8950030 14.5943328 -16.7086278 -48.5274209 19.1046292
1.4427357 -0.3689036 0.1092727 -0.080366 -0.003444 -0.002695 -0.1357972 0.7731740 2.8374408 11.5982283 -12.6174476 -50.0414941 19.5394746
1.3715258 -0.3195472 0.0963401 -0.052089 0.013951 -0.002850 -0.0315533 0.5030316 2.8397896 8.7060964 -8.9070739 -50.9367081 20.2474368
1.2955955 -0.2726893 0.0905298 -0.026713 0.029986 -0.002140 0.0554538 0.2623894 2.7493100 6.1140282 -5.5825290 -51.4159594 20.7242080
1.2161189 -0.2288395 0.0907417 -0.004390 0.043793 -0.000693 0.1318860 0.0703384 2.8600585 3.8076264 -2.6258684 -51.4945510 21.4163361
1.1343336 -0.1883552 0.0958091 0.014533 0.054796 0.001278 0.1792958 -0.0990844 2.6831935 1.9218678 -0.0435230 -51.3314301 21.8161229
1.0523281 -0.1517566 0.1044212 0.030291 0.062760 0.003494 0.3293652 -0.3651431 3.9665345 0.1614065 2.2530716 -51.8673077 22.4663489
1.7197005 0.1757386 0.5646521 0.297003 -0.115479 -0.000075 -3.6340676 -9.3858243 1.0348955 29.7679337 34.6707408 -5.1936677 19.5982501
1.7380137 0.1582413 0.5052884 0.287712 -0.120991 -0.001007 -3.8392107 -9.1869865 2.1792107 30.9133160 33.2148068 -10.5487082 19.2072155
1.7444734 0.1368085 0.4444027 0.273879 -0.122695 -0.001864 -3.5905403 -8.0992425 3.0948865 31.5519203 31.8423070 -16.3598658 18.8635798
1.7384841 0.1116189 0.3839856 0.255795 -0.120190 -0.002396 -3.2067045 -6.9348749 3.8036047 31.2642693 29.9836657 -22.1366766 18.6897102
1.7196798 0.0833752 0.3261738 0.234060 -0.113118 -0.002292 -2.7139867 -5.7327671 4.2461064 30.1268703 27.7549695 -27.7503905 18.6150882
1.6883316 0.0531106 0.2729796 0.209938 -0.101544 -0.001370 -2.1785377 -4.5922772 4.4298411 28.1243369 25.2524039 -32.9626308 18.7310744
1.6453319 0.0220304 0.2260241 0.184624 -0.085916 0.000212 -1.6708397 -3.6065695 4.4308349 25.4224021 22.5185883 -37.5944529 18.9561121
1.5920399 -0.0086580 0.1863749 0.159451 -0.067142 0.002160 -1.2129710 -2.7702437 4.2781480 22.1863951 19.6783385 -41.4867663 19.2968458
1.5300636 -0.0378925 0.1545090 0.135298 -0.046291 0.004089 -0.8345333 -2.1101976 4.0727314 18.6735317 16.7831584 -44.6348743 19.7176708
1.4610550 -0.0648464 0.1303814 0.112939 -0.024740 0.005596 -0.5180568 -1.5583763 3.7625682 15.0604437 14.0065805 -47.0401118 20.1887127
1.3865587 -0.0889578 0.1135548 0.092498 -0.003418 0.006497 -0.2801705 -1.1540129 3.5151110 11.5663637 11.2669253 -48.7931722 20.6614694
1.3079171 -0.1099058 0.1033364 0.074185 0.016486 0.006633 -0.0941836 -0.8142182 3.1858386 8.2668992 8.7503320 -50.0183536 21.1421721
1.2261823 -0.1275546 0.0989073 0.057748 0.034439 0.005974 0.0429634 -0.6051878 3.1402531 5.2794402 6.3086283 -50.5703883 21.6116124
1.1417862 -0.1417640 0.0994387 0.043116 0.049791 0.004953 0.1179358 -0.3190186 2.3169110 2.6113137 4.2286442 -51.5922145 22.0120521
1.8058716 0.1371909 0.5584525 0.282927 -0.143291 -0.001422 -4.2031083 -8.3454011 1.1146478 35.7801529 32.1518296 -5.7880052 18.0705596
1.8232902 0.1144200 0.4928909 0.269268 -0.149741 -0.003168 -3.8889872 -7.0671214 2.0481673 37.4073835 30.5876786 -12.0821343 17.4501929
1.8259687 0.0879635 0.4266633 0.250988 -0.151197 -0.004901 -3.3988561 -5.7566986 2.7192443 37.8234376 28.7106920 -18.4760942 17.2287814
1.8139325 0.0581735 0.3621443 0.228127 -0.146808 -0.005831 -2.7915219 -4.4825885 3.0827622 37.1729988 26.3825622 -24.8628204 17.0066778
1.7874756 0.0260126 0.3017541 0.202405 -0.136759 -0.005703 -2.2366890 -3.4663460 3.2749567 35.2543591 23.7727791 -30.8573180 17.1859799
1.7475392 -0.0072164 0.2476010 0.174888 -0.121140 -0.004527 -1.7366811 -2.6491457 3.3281816 32.3947332 20.8729156 -36.2352951 17.3511084
1.6956532 -0.0401262 0.2011903 0.147598 -0.101151 -0.002580 -1.3444596 -2.0654190 3.3906089 28.6703660 17.8650183 -40.7783106 17.8815981
1.6336912 -0.0714585 0.1633049 0.121422 -0.077923 -0.000371 -0.9907770 -1.5777264 3.3628922 24.5428315 14.8128019 -44.4250426 18.3211479
1.5635836 -0.1002220 0.1340584 0.097557 -0.053133 0.001640 -0.6973315 -1.1988635 3.3311185 20.1690913 11.8637485 -47.1816903 19.0152348
1.4870803 -0.1257362 0.1130495 0.076046 -0.028038 0.003059 -0.4366448 -0.8678612 3.1938440 15.9206422 9.0250702 -49.1293433 19.5389627
1.4055748 -0.1475989 0.0995571 0.057282 -0.004061 0.003688 -0.2283699 -0.6106150 3.0756334 11.8309442 6.4396051 -50.3906013 20.2689845
1.3199263 -0.1655855 0.0927134 0.040692 0.018152 0.003501 -0.0576396 -0.3879468 2.8453834 8.1759986 4.0093774 -51.1408367 20.7295459
1.2301117 -0.1794343 0.0916735 0.026587 0.037803 0.002655 0.0688229 -0.2146551 2.5963328 4.7925496 1.8789544 -51.6129702 21.4264156
1.8873875 0.0895333 0.5525505 0.260806 -0.174673 -0.002461 -3.4461700 -5.1795746 0.8510908 42.9306791 29.0779267 -6.5891614 16.2695966
1.9015805 0.0612101 0.4811531 0.242214 -0.181533 -0.005324 -2.5952054 -3.5158701 1.2766756 44.5788861 27.0755587 -13.5851753 15.7564640
1.8986407 0.0295248 0.4099539 0.218627 -0.181447 -0.007469 -1.7351896 -2.1548339 1.3036691 44.7129815 24.6390229 -20.7781272 15.4596539
1.8789117 -0.0047432 0.3419177 0.191172 -0.174052 -0.008476 -1.1290972 -1.3046480 1.1788711 43.2491863 21.8844202 -27.6720499 15.4859834
1.8433718 -0.0402648 0.2797734 0.161555 -0.159439 -0.008020 -0.8491886 -0.9259805 1.1853263 40.3417680 18.8013303 -33.9834904 15.7665561
1.7937361 -0.0754937 0.2256202 0.131877 -0.138719 -0.006346 -0.7573643 -0.7902155 1.3978049 36.2530694 15.6155370 -39.3939155 16.2949426
1.7322111 -0.1089714 0.1806918 0.103625 -0.113340 -0.004023 -0.7413325 -0.7504955 1.8239234 31.4021122 12.3589343 -43.7250284 16.9531574
1.6611220 -0.1395304 0.1453551 0.078084 -0.085318 -0.001671 -0.6582661 -0.6562745 2.2183149 26.1851699 9.2627473 -46.9736729 17.7310455
1.5825732 -0.1663680 0.1192928 0.055621 -0.056314 0.000186 -0.5275636 -0.5274365 2.5698716 20.9687075 6.3235821 -49.2063467 18.5259825
1.4982103 -0.1890073 0.1017484 0.036359 -0.027971 0.001225 -0.3461636 -0.3573939 2.7114648 16.0215764 3.6696145 -50.6067159 19.3038441
1.4090480 -0.2071804 0.0917668 0.020102 -0.001291 0.001366 -0.1694447 -0.1962502 2.7757862 11.4543059 1.2510737 -51.3586704 20.0680802
1.3152900 -0.2206338 0.0883774 0.006531 0.022720 0.000661 -0.0095369 -0.0515834 2.7158739 7.3952160 -0.8136008 -51.6314290 20.7603252
1.9619448 0.0312770 0.5467505 0.228827 -0.208600 -0.003475 -0.3829057 -0.4234132 0.0889579 50.8356160 25.0724820 -7.3970561 14.3349948
1.9705848 -0.0026994 0.4699839 0.204520 -0.214247 -0.006751 1.2857496 1.2523187 -0.5991324 52.2795720 22.4576428 -15.2822030 13.7251732
1.9599021 -0.0393263 0.3945811 0.175701 -0.211093 -0.009020 2.1470481 1.8630685 -1.5400706 51.6486076 19.5120551 -23.1191211 13.7036316
1.9306896 -0.0772863 0.3240691 0.144032 -0.198669 -0.009575 2.1180062 1.6489148 -2.1306897 49.0656953 16.2200317 -30.5147933 13.8657132
1.8847420 -0.1149011 0.2613609 0.112102 -0.178261 -0.008512 1.4084830 0.9853014 -1.9149742 44.7378664 12.8525462 -36.9778324 14.5340711
1.8246112 -0.1505167 0.2083594 0.081662 -0.151267 -0.006394 0.5719607 0.3568593 -1.0420491 39.2283747 9.4012926 -42.2109322 15.2602705
1.7531204 -0.1827909 0.1658598 0.054535 -0.120340 -0.003889 -0.0597138 -0.0324015 0.1475754 33.0680633 6.1700561 -46.1525579 16.3049031
1.6728907 -0.2108079 0.1337261 0.031052 -0.087436 -0.001769 -0.3450689 -0.1518835 1.1974444 26.8308691 3.1306331 -48.8365390 17.1914442
1.5860137 -0.2340435 0.1112059 0.011640 -0.054759 -0.000417 -0.3871061 -0.1089423 2.0218754 20.7919342 0.4589908 -50.4771011 18.2791455
1.4938822 -0.2522349 0.0972374 -0.004359 -0.023635 -0.000099 -0.2670194 0.0131066 2.4347212 15.3234395 -1.8936401 -51.3095071 19.0922374
1.3971201 -0.2652079 0.0906947 -0.016951 0.004824 -0.000721 -0.1073763 0.1472428 2.7005380 10.3884712 -3.8850861 -51.5488794 20.0511043
2.0262254 -0.0385527 0.5412476 0.184980 -0.242220 -0.003989 6.2346483 4.8086823 -1.3840842 59.0233244 19.7796512 -8.2823288 12.3145190
2.0269255 -0.0777674 0.4598620 0.154932 -0.244585 -0.007317 8.1820782 5.3241533 -3.6752733 59.7663245 16.5397226 -16.9327360 11.9630455
2.0063897 -0.1182954 0.3814132 0.121635 -0.236015 -0.008981 8.0263884 4.3812986 -5.6044104 57.9339890 13.0431229 -25.4045208 12.0915887
1.9661646 -0.1583306 0.3098127 0.087581 -0.217067 -0.008792 6.1635391 2.7605954 -6.1041865 53.7617927 9.4369528 -33.0559258 12.7171192
1.9089994 -0.1960315 0.2479062 0.055320 -0.189520 -0.007074 3.6944407 1.2841764 -5.0121400 47.7775477 5.8121113 -39.4743055 13.6551807
1.8382334 -0.2298897 0.1971764 0.026722 -0.156255 -0.004673 1.6242037 0.3781214 -3.0034236 40.7315745 2.4296620 -44.3511545 14.7974223
1.7571237 -0.2588980 0.1578592 0.002639 -0.119938 -0.002427 0.3408896 0.0283657 -0.8750775 33.3406801 -0.6617634 -47.7326750 16.0080494