# volRat = 0.650000
# viscRat = 5.000000
# alpha = 1.000000
# shRate = 2.250000
# tnum = 7300
# time = 7.793000
VARIABLES = X, Y, Z, U, V, W, F_B0, F_B1, F_B2, F_0, F_1, F_2, T
ZONE N=2562 E=5120 F=FEPOINT ET=TRIANGLE
1.6566216 0.4678140 0.6212292 0.002971 -0.000563 0.000002 3.1015297 14.6410499 0.0000269 23.5487441 51.4032931 0.0000128 20.0329050
-1.6566216 0.4678140 0.6212292 -0.002971 -0.000563 0.000002 -3.1015197 14.6410516 0.0000274 -23.5487355 51.4032945 0.0000132 20.0329052
1.6566216 -0.4678130 0.6212292 0.002982 0.000563 0.000001 3.1014574 -14.6407640 0.0000274 23.5442924 -51.4031437 0.0006340 20.0298775
-1.6566216 -0.4678130 0.6212292 -0.002982 0.000563 0.000001 -3.1014683 -14.6407670 0.0000269 -23.5443018 -51.4031473 0.0006333 20.0298777
0.9836133 0.0000001 1.1303072 -0.001708 -0.000014 -0.000523 -1.9814970 -0.0000605 17.7695416 -2.5052719 0.0070439 59.8396311 22.6265902
0.9836128 0.0000001 0.1121487 -0.001754 -0.000018 -0.000488 -1.7970811 -0.0000614 -16.1157582 -2.3626482 0.0051519 -58.2177536 22.6273214
-0.9836133 0.0000001 1.1303072 0.001708 -0.000014 -0.000523 1.9814944 -0.0000033 17.7695183 2.5052697 0.0070765 59.8396082 22.6265904
-0.9836128 0.0000001 0.1121487 0.001754 -0.000018 -0.000488 1.7970816 -0.0000500 -16.1157625 2.3626490 0.0051588 -58.2177578 22.6273215
-0.0000000 0.3400960 0.8371199 -0.000000 -0.002325 -0.000831 0.0000189 -68.0097736 -38.9982980 0.0000182 -15.1454438 -4.6228814 25.6669983
-0.0000000 -0.3400960 0.8371199 -0.000000 0.000873 0.000120 0.0000027 79.1607634 -45.3984175 0.0000025 26.1319325 -10.9448144 25.6250566
-0.0000000 0.3400988 0.4053378 -0.000000 0.000556 -0.000732 0.0000003 -71.9967723 41.2827001 0.0000004 -19.0080896 6.7959550 25.6996704
-0.0000000 -0.3400983 0.4053380 -0.000000 -0.001183 -0.001237 0.0000029 82.0299416 47.0424654 0.0000028 28.9112833 12.5117382 25.6497233
1.6794076 0.4610495 0.6755917 0.004224 -0.000896 -0.000142 -3.0133776 -12.8872657 -1.2373443 22.8293261 39.1191995 4.7283726 19.8459549
1.6960177 0.4477641 0.7347808 0.004061 -0.000929 -0.000178 -2.3368033 -9.0598868 -1.9891070 24.7042037 40.0347184 10.9524638 19.4154027
1.7036331 0.4281005 0.7964040 0.003660 -0.000844 -0.000253 -2.2161458 -7.9544383 -2.8447004 25.3473445 38.4816938 17.1020849 19.2380222
1.7004081 0.4024099 0.8577779 0.002592 -0.000574 -0.000193 -1.9678783 -6.6885513 -3.4488423 25.4351034 36.3948210 23.2868636 18.9418074
1.6854430 0.3713728 0.9165955 0.001613 -0.000282 -0.000157 -1.6886704 -5.5742200 -3.8949362 24.5588470 33.5995560 29.1317280 18.9583360
1.6586037 0.3360617 0.9707499 0.000339 0.000104 -0.000113 -1.3412906 -4.4277190 -4.0481966 22.9918945 30.3713641 34.4597269 18.9088891
1.6204187 0.2978107 1.0185480 -0.000732 0.000408 -0.000069 -1.0080303 -3.4500649 -4.0464749 20.7127666 26.8550100 39.0420858 19.1568195
1.5719233 0.2580453 1.0588473 -0.001741 0.000666 -0.000051 -0.7025140 -2.6182039 -3.9027180 18.0029846 23.1778350 42.7984082 19.3466670
1.5144628 0.2181115 1.0911014 -0.002325 0.000776 -0.000057 -0.4492972 -1.9690581 -3.7277035 14.9708017 19.5402810 45.7133915 19.8073530
1.4495040 0.1791533 1.1153071 -0.002751 0.000801 -0.000077 -0.2386475 -1.4306459 -3.4675242 11.9409446 16.0175476 47.8947310 20.1215495
1.3784963 0.1420524 1.1318853 -0.002745 0.000712 -0.000101 -0.0789138 -1.0461371 -3.3072239 8.9374012 12.6934229 49.3730826 20.6887929
1.3028028 0.1074277 1.1415511 -0.002635 0.000560 -0.000116 0.0459282 -0.7205109 -3.0737693 6.1943959 9.6237975 50.3806246 21.0510426
1.2237326 0.0756763 1.1451947 -0.002304 0.000394 -0.000124 0.1453320 -0.4955833 -3.0327231 3.6964536 6.7927823 50.8994570 21.6080066
1.1426484 0.0470287 1.1438179 -0.002014 0.000232 -0.000133 0.2201840 -0.2955653 -2.9222545 1.5912829 4.2281610 51.1555308 21.9270907
1.0617177 0.0217569 1.1385366 -0.001641 0.000022 -0.000099 0.5444424 -0.2471213 -5.5611159 -0.2312249 1.8767672 50.3888765 22.4574189
1.7682013 -0.4352219 0.6841504 0.004026 0.001231 -0.000307 -2.7081623 7.9958958 -0.9994038 30.0741975 -39.6261259 6.2950846 18.4564810
1.7853835 -0.4163884 0.7496429 0.003782 0.001319 -0.000016 -2.6743517 7.1059891 -1.9185066 31.7135209 -38.3360967 12.8652686 18.0807802
1.7900686 -0.3913087 0.8160418 0.003012 0.001178 0.000124 -2.3731659 5.8101515 -2.5445238 32.4226702 -36.2817984 19.7897344 17.7583333
1.7816355 -0.3603360 0.8809119 0.001938 0.000897 0.000268 -1.9910090 4.5857234 -2.9134821 31.9716578 -33.4720792 26.4584173 17.6305109
1.7598303 -0.3244696 0.9417704 0.000569 0.000497 0.000417 -1.5931469 3.5248810 -3.0721512 30.4812660 -30.0797280 32.6228241 17.6252585
1.7251302 -0.2851253 0.9964315 -0.000738 0.000084 0.000482 -1.2384687 2.6926285 -3.1256396 27.9888675 -26.3098441 37.9608146 17.8331485
1.6786623 -0.2439060 1.0432999 -0.001888 -0.000290 0.000473 -0.9363367 2.0539714 -3.1333863 24.8075297 -22.3528142 42.3724207 18.1618104
1.6219820 -0.2023683 1.0814998 -0.002718 -0.000516 0.000420 -0.6787635 1.5542649 -3.1137685 21.1734157 -18.4207312 45.7547681 18.6201641
1.5568127 -0.1618441 1.1108426 -0.003228 -0.000651 0.000312 -0.4632640 1.1651878 -3.1025230 17.3894898 -14.6112733 48.2232138 19.1554290
1.4848328 -0.1233526 1.1316890 -0.003322 -0.000581 0.000207 -0.2737817 0.8323316 -3.0304847 13.6487924 -11.0958582 49.8601026 19.7425303
1.4075393 -0.0875901 1.1447678 -0.003230 -0.000495 0.000094 -0.1177414 0.5654775 -2.9747863 10.1694000 -7.8280234 50.8685896 20.3181186
1.3261794 -0.0549776 1.1510173 -0.002881 -0.000306 0.000007 0.0111028 0.3332461 -2.8306284 6.9936614 -4.9201142 51.4106685 20.9026978
1.2416872 -0.0257273 1.1514519 -0.002484 -0.000168 -0.000061 0.1083009 0.1456399 -2.6530774 4.2057226 -2.2927066 51.6737771 21.4588549
1.1543759 0.0000001 1.1470642 -0.002031 0.000006 -0.000064 0.1637318 0.0000022 -2.2815178 1.7896643 -0.0047093 51.8399583 21.9453908
1.8531412 -0.4003574 0.6904713 0.003938 0.001793 0.000159 -2.5749770 5.3874998 -0.8179143 37.8611826 -37.8405699 7.1511098 16.9370261
1.8691531 -0.3753194 0.7620365 0.003220 0.001698 0.000295 -2.0288579 3.7906420 -1.2557118 39.7464579 -35.7205660 14.8087147 16.3404951
1.8696001 -0.3442421 0.8333098 0.002322 0.001597 0.000676 -1.4572324 2.4831537 -1.3541677 40.0840142 -32.9381004 22.3865194 16.1677065
1.8545662 -0.3078055 0.9014704 0.000833 0.001131 0.000932 -0.9727034 1.5375195 -1.2402986 39.0029526 -29.3918294 29.5986022 16.0295799
1.8245745 -0.2673912 0.9638259 -0.000503 0.000717 0.001074 -0.7222122 1.0748759 -1.2200411 36.4295504 -25.4053712 35.9411458 16.3122798
1.7808737 -0.2247412 1.0182350 -0.001956 0.000185 0.001116 -0.5925206 0.8417031 -1.3159671 32.8557672 -21.1614037 41.2275328 16.6103557
1.7252765 -0.1816225 1.0633790 -0.002928 -0.000128 0.001030 -0.5662445 0.7773594 -1.6725769 28.4797240 -16.9205693 45.2718584 17.2700766
1.6598410 -0.1395717 1.0987999 -0.003668 -0.000358 0.000871 -0.4995090 0.6702144 -2.0237377 23.8609608 -12.8517143 48.1786261 17.8454412
1.5865596 -0.0997562 1.1247502 -0.003855 -0.000358 0.000647 -0.4084588 0.5410204 -2.4066473 19.1978961 -9.0997590 50.0596528 18.6607465
1.5071397 -0.0629569 1.1419681 -0.003861 -0.000326 0.000422 -0.2691285 0.3549552 -2.5853292 14.8496383 -5.6754081 51.1717202 19.3019992
1.4228624 -0.0296268 1.1514487 -0.003449 -0.000123 0.000217 -0.1306087 0.1727118 -2.7220045 10.8215280 -2.6768732 51.6755368 20.1334236
1.3344391 0.0000001 1.1542706 -0.003115 -0.000005 0.000054 -0.0000474 0.0000021 -2.6483132 7.3334749 0.0027743 51.8075665 20.6859241
1.2416872 0.0257275 1.1514520 -0.002484 0.000164 -0.000058 0.1083795 -0.1457412 -2.6550015 4.2071809 2.2940024 51.6721285 21.4617721
1.9333949 -0.3543012 0.6962190 0.003314 0.002135 0.000292 -0.6159819 0.9187850 -0.1724076 46.6888705 -34.5844480 8.1276081 15.1523704
1.9456897 -0.3227835 0.7731678 0.002463 0.002064 0.000835 0.5537059 -0.7275034 0.3044327 48.4281590 -31.7562448 16.6099473 14.6901502
1.9398713 -0.2856781 0.8485982 0.001212 0.001720 0.001225 1.3174115 -1.5479594 1.0966183 48.1444152 -28.1039075 24.9602237 14.4833187
1.9165024 -0.2442210 0.9191456 -0.000276 0.001287 0.001613 1.4346381 -1.5213498 1.6518010 45.8784841 -23.9297035 32.4912184 14.6440127
1.8769352 -0.2002218 0.9819528 -0.001796 0.000709 0.001758 1.0399135 -0.9980699 1.5987171 42.0063116 -19.4133587 38.8989108 15.0750565
1.8232705 -0.1556395 1.0350781 -0.003043 0.000252 0.001721 0.4385309 -0.3784897 0.8931796 36.9430531 -14.8881651 43.8512798 15.7643644
1.7579893 -0.1122198 1.0776419 -0.003909 -0.000090 0.001507 -0.0481519 0.0364952 -0.1314424 31.3550401 -10.5585041 47.4329842 16.5735343
1.6835284 -0.0712901 1.1096985 -0.004258 -0.000181 0.001183 -0.3040396 0.1895742 -1.1477293 25.6418739 -6.6106939 49.7385594 17.4905040
1.6019578 -0.0337204 1.1319546 -0.004253 -0.000165 0.000829 -0.3539599 0.1469374 -1.9627321 20.1982482 -3.0669994 51.0475016 18.4022167
1.5147910 0.0000002 1.1454768 -0.003955 0.000002 0.000497 -0.2661162 0.0000016 -2.4448573 15.2419949 -0.0020468 51.6128347 19.2820032
1.4228624 0.0296271 1.1514487 -0.003447 0.000122 0.000217 -0.1306146 -0.1727155 -2.7221260 10.8197573 2.6762718 51.6751675 20.1301082
1.3261794 0.0549779 1.1510174 -0.002883 0.000311 0.000006 0.0111004 -0.3331682 -2.8300051 6.9942289 4.9142173 51.4122265 20.9026389
2.0059984 -0.2956386 0.7015446 0.002476 0.002318 0.000561 4.2881803 -4.4771698 1.0856695 56.0009390 -29.7586283 9.0607135 13.2808895
2.0120006 -0.2577479 0.7830153 0.001445 0.002063 0.001190 6.0403300 -5.4090301 3.0354259 57.1508463 -26.0309619 18.3875541 12.7874209
1.9976867 -0.2152867 0.8614476 0.000099 0.001704 0.001837 6.2217125 -4.7906079 4.7799122 55.6482826 -21.6944486 27.1881696 12.9109855
1.9642674 -0.1700786 0.9330563 -0.001467 0.001056 0.002202 5.0638765 -3.3172752 5.4329480 51.8547390 -16.9629906 34.9157969 13.2603587
1.9140294 -0.1242382 0.9950206 -0.002815 0.000605 0.002320 3.1907120 -1.7209269 4.6157990 46.2825263 -12.2474321 41.0860695 14.1170180
1.8499066 -0.0797107 1.0458009 -0.003899 0.000143 0.002163 1.4991279 -0.6130962 2.9034071 39.7518944 -7.7015322 45.6087743 15.0198468
1.7748978 -0.0379800 1.0850754 -0.004375 0.000045 0.001769 0.3396763 -0.0824231 0.8923470 32.8911100 -3.6274755 48.5906036 16.2099791
1.6916024 0.0000002 1.1134264 -0.004576 -0.000002 0.001325 -0.2030831 0.0000004 -0.7491832 26.3032665 0.0008623 50.2946983 17.2199240
1.6019578 0.0337208 1.1319547 -0.004258 0.000161 0.000830 -0.3539364 -0.1469253 -1.9626022 20.2006750 3.0676839 51.0475589 18.4042896
1.5071397 0.0629573 1.1419682 -0.003859 0.000320 0.000423 -0.2691325 -0.3549570 -2.5853678 14.8489758 5.6790908 51.1711264 19.3028465
1.4075393 0.0875904 1.1447679 -0.003233 0.000490 0.000094 -0.1177476 -0.5655029 -2.9749436 10.1712016 7.8299809 50.8682657 20.3210343
2.0668970 -0.2238556 0.7061688 0.001498 0.002158 0.000769 12.6344298 -8.7240158 2.9704640 64.7796616 -23.0052591 9.9054878 11.4348870
2.0640909 -0.1804680 0.7909788 0.000380 0.001732 0.001647 13.8238906 -7.7226464 6.5223662 64.6866346 -18.5249866 19.7808926 11.2566320
2.0392888 -0.1342499 0.8709156 -0.000947 0.001208 0.002288 12.0795780 -5.2776527 8.8065994 61.5564315 -13.7007276 28.8745106 11.6057963
1.9946201 -0.0874362 0.9420592 -0.002345 0.000665 0.002675 8.4846248 -2.6580218 8.7327114 55.9268439 -8.8304054 36.4699490 12.4521324
1.9333292 -0.0421447 1.0019071 -0.003452 0.000162 0.002630 4.7227126 -0.8223157 6.6309882 48.6643674 -4.1558496 42.2731802 13.5817677
1.8590050 0.0000003 1.0494910 -0.004141 0.000000 0.002295 1.9355636 -0.0000018 3.6871505 40.7563264 -0.0007756 46.2321108 14.8825746
1.7748978 0.0379806 1.0850754 -0.004371 -0.000047 0.001769 0.3396446 0.0824145 0.8922639 32.8894767 3.6273515 48.5906641 16.2081811
1.6835284 0.0712906 1.1096985 -0.004258 0.000182 0.001183 -0.3040405 -0.1895734 -1.1477327 25.6418045 6.6085101 49.7389996 17.4902829
1.5865596 0.0997567 1.1247503 -0.003851 0.000358 0.000647 -0.4084750 -0.5410388 -2.4067431 19.1958442 9.0981801 50.0598602 18.6583042
1.4848328 0.1233530 1.1316892 -0.003325 0.000584 0.000205 -0.2737676 -0.8322847 -3.0303297 13.6499176 11.0919749 49.8614961 19.7412388
2.1113720 -0.1401017 0.7096543 0.000574 0.001546 0.000980 22.6169714 -8.9085477 5.0644058 71.6839055 -14.5225354 10.5031111 9.8975137
2.0976668 -0.0931177 0.7962386 -0.000404 0.001007 0.001890 21.3932348 -5.7460378 9.7235593 69.8840612 -9.6298159 20.7088511 10.0171324
2.0611713 -0.0456655 0.8759821 -0.001569 0.000452 0.002565 16.2317293 -2.2998443 11.5312537 64.8059092 -4.6909786 29.7466509 10.8862069
2.0050554 0.0000004 0.9451873 -0.002658 -0.000000 0.002811 9.9671801 -0.0000043 10.1189162 57.3783746 0.0001035 37.0404799 12.0307151
1.9333292 0.0421453 1.0019071 -0.003457 -0.000165 0.002632 4.7227473 0.8223158 6.6310373 48.6660200 4.1562534 42.2724869 13.5828514
1.8499066 0.0797113 1.0458010 -0.003898 -0.000145 0.002163 1.4991344 0.6130961 2.9034203 39.7515885 7.7026770 45.6087382 15.0203093
1.7579893 0.1122204 1.0776420 -0.003913 0.000087 0.001509 -0.0481234 -0.0364734 -0.1313645 31.3567449 10.5593161 47.4326269 16.5751703
1.6598410 0.1395722 1.0988000 -0.003668 0.000354 0.000872 -0.4995061 -0.6702081 -2.0237264 23.8610373 12.8538072 48.1778572 17.8462167
1.5568127 0.1618446 1.1108428 -0.003230 0.000644 0.000314 -0.4632586 -1.1651705 -3.1024882 17.3906977 14.6137296 48.2223716 19.1581313
2.1349911 -0.0477513 0.7115450 0.000018 0.000555 0.001077 29.7229271 -3.8059610 6.4964957 75.4368200 -4.9472740 10.8091870 9.0155788
2.1092999 0.0000004 0.7980857 -0.000728 -0.000000 0.002032 24.5086988 -0.0000057 11.0025558 71.6940087 -0.0002188 20.9928887 9.6600943
2.0611713 0.0456663 0.8759821 -0.001566 -0.000454 0.002563 16.2317037 2.2998306 11.5312362 64.8050833 4.6910629 29.7472094 10.8856378
1.9946201 0.0874369 0.9420593 -0.002345 -0.000666 0.002674 8.4846237 2.6580139 8.7327113 55.9266914 8.8297717 36.4702313 12.4518800
1.9140294 0.1242389 0.9950207 -0.002811 -0.000606 0.002318 3.1906827 1.7209070 4.6157576 46.2811005 12.2467840 41.0867189 14.1157703
1.8232705 0.1556401 1.0350782 -0.003044 -0.000252 0.001721 0.4385268 0.3784853 0.8931715 36.9436197 14.8867933 43.8515780 15.7636666
1.7252765 0.1816231 1.0633792 -0.002923 0.000128 0.001029 -0.5662644 -0.7773849 -1.6726360 28.4776163 16.9194100 45.2725903 17.2683402
1.6219820 0.2023689 1.0815001 -0.002720 0.000517 0.000418 -0.6787593 -1.5542516 -3.1137503 21.1741629 18.4180933 45.7561575 18.6188351
2.1349912 0.0477521 0.7115450 0.000017 -0.000557 0.001081 29.7229415 3.8059515 6.4964992 75.4371763 4.9474477 10.8081952 9.0160084
2.0976669 0.0931184 0.7962387 -0.000404 -0.001007 0.001890 21.3932493 5.7460316 9.7235671 69.8840811 9.6299149 20.7090170 10.0172470
2.0392888 0.1342507 0.8709157 -0.000950 -0.001211 0.002291 12.0796058 5.2776570 8.8066213 61.5572600 13.7010254 28.8736850 11.6063772
1.9642674 0.1700793 0.9330565 -0.001468 -0.001057 0.002203 5.0638975 3.3172841 5.4329719 51.8550813 16.9635068 34.9154365 13.2610265
1.8769353 0.2002225 0.9819530 -0.001798 -0.000713 0.001761 1.0399424 0.9980961 1.5987620 42.0070336 19.4144889 38.8981495 15.0762676
1.7808737 0.2247418 1.0182352 -0.001956 -0.000187 0.001116 -0.5925062 -0.8416814 -1.3159357 32.8558587 21.1624343 41.2270353 16.6114958
1.6786623 0.2439066 1.0433001 -0.001892 0.000285 0.000476 -0.9363246 -2.0539414 -3.1333470 24.8089629 22.3546003 42.3710573 18.1634957
2.1113721 0.1401025 0.7096543 0.000575 -0.001548 0.000977 22.6169683 8.9085374 5.0644060 71.6834678 14.5225718 10.5039289 9.8971172
2.0640910 0.1804688 0.7909788 0.000380 -0.001733 0.001647 13.8238901 7.7226391 6.5223675 64.6867591 18.5245835 19.7808117 11.2564629
1.9976868 0.2152875 0.8614478 0.000103 -0.001705 0.001833 6.2216912 4.7905872 4.7798973 55.6470424 21.6941924 27.1893035 12.9100781
1.9165024 0.2442217 0.9191457 -0.000277 -0.001287 0.001612 1.4346270 1.5213366 1.6517889 45.8788083 23.9287049 32.4916694 14.6432508
1.8245745 0.2673919 0.9638261 -0.000500 -0.000717 0.001071 -0.7222357 -1.0749098 -1.2200815 36.4284868 25.4042974 35.9420992 16.3106810
1.7251302 0.2851259 0.9964318 -0.000738 -0.000085 0.000481 -1.2384729 -2.6926344 -3.1256516 27.9889409 26.3085487 37.9618714 17.8320637
2.0668970 0.2238565 0.7061689 0.001498 -0.002160 0.000772 12.6344514 8.7240252 2.9704699 64.7797377 23.0055446 9.9048214 11.4349772
2.0120006 0.2577487 0.7830154 0.001443 -0.002063 0.001191 6.0403600 5.4090535 3.0354420 57.1513382 26.0310983 18.3873205 12.7881398
1.9398714 0.2856789 0.8485984 0.001210 -0.001723 0.001229 1.3174364 1.5479877 1.0966395 48.1450936 28.1045591 24.9588953 14.4840512
1.8545663 0.3078063 0.9014706 0.000833 -0.001134 0.000932 -0.9726755 -1.5374743 -1.2402637 39.0028637 29.3927682 29.5981624 16.0310577
1.7598303 0.3244703 0.9417706 0.000567 -0.000501 0.000421 -1.5931308 -3.5248423 -3.0721217 30.4820730 30.0808207 32.6214349 17.6264544
2.0059985 0.2956395 0.7015447 0.002477 -0.002319 0.000558 4.2881692 4.4771560 1.0856671 56.0004091 29.7585151 9.0616239 13.2804041
1.9456898 0.3227844 0.7731679 0.002464 -0.002065 0.000834 0.5536925 0.7274854 0.3044254 48.4278971 31.7558720 16.6105095 14.6895142
1.8696001 0.3442430 0.8333100 0.002325 -0.001597 0.000672 -1.4572607 -2.4832006 -1.3541947 40.0831949 32.9372683 22.3879714 16.1662962
1.7816355 0.3603368 0.8809121 0.001937 -0.000897 0.000268 -1.9910215 -4.5857493 -2.9135020 31.9721960 33.4710999 26.4591413 17.6292787
1.9333950 0.3543021 0.6962191 0.003314 -0.002137 0.000297 -0.6159753 -0.9187748 -0.1724058 46.6890605 34.5846222 8.1263131 15.1524738
1.8691532 0.3753203 0.7620366 0.003217 -0.001700 0.000297 -2.0288235 -3.7905761 -1.2556913 39.7473732 35.7210267 14.8079456 16.3420699
1.7900687 0.3913096 0.8160420 0.003012 -0.001182 0.000129 -2.3731510 -5.8101122 -2.5445093 32.4224505 36.2827429 19.7881136 17.7592804
1.8531412 0.4003584 0.6904714 0.003942 -0.001795 0.000153 -2.5750008 -5.3875475 -0.8179223 37.8598752 37.8404851 7.1530526 16.9360024
1.7853836 0.4163893 0.7496430 0.003783 -0.001320 -0.000017 -2.6743682 -7.1060301 -1.9185196 31.7136716 38.3353940 12.8659331 18.0796594
1.7682013 0.4352228 0.6841504 0.004025 -0.001233 -0.000301 -2.7081593 -7.9958838 -0.9994034 30.0746031 39.6262467 6.2932700 18.4564695
1.7374956 0.4486703 0.6212290 0.003861 -0.001038 -0.000008 -2.9231203 -9.9988498 -0.0000150 27.4570758 40.3145754 0.0031483 19.0622627
1.8207412 0.4197026 0.6212289 0.003995 -0.001553 0.000014 -2.7184629 -6.5643113 -0.0000085 34.7007385 39.0766204 -0.0049478 17.4891829
1.9027512 0.3799219 0.6212287 0.003637 -0.001970 -0.000005 -1.7884167 -3.1010508 -0.0000033 43.1150680 36.5785140 0.0015955 15.9369006
1.9795674 0.3278783 0.6212286 0.003036 -0.002300 -0.000000 1.7517399 2.1601802 0.0000018 52.3469961 32.6192947 0.0005866 13.9948034
2.0471810 0.2625874 0.6212285 0.002135 -0.002298 0.000004 8.8807466 7.5133692 0.0000046 61.7376704 26.8030659 -0.0013873 12.1470403
2.1008743 0.1842959 0.6212284 0.001200 -0.001919 0.000000 19.1967172 10.1704733 0.0000036 69.9341552 19.0846732 0.0002128 10.3080918
2.1357376 0.0952450 0.6212283 0.000467 -0.001115 -0.000003 29.0103719 7.4043749 0.0000002 75.4631507 9.8885699 0.0011893 9.1044262
2.1478641 0.0000004 0.6212283 0.000180 -0.000000 0.000006 33.2264079 -0.0000059 -0.0000016 77.4159437 0.0000038 -0.0018727 8.5514126
2.1357375 -0.0952442 0.6212283 0.000466 0.001114 -0.000003 29.0103639 -7.4043833 0.0000002 75.4631285 -9.8888933 0.0010206 9.1047049
2.1008742 -0.1842951 0.6212284 0.001201 0.001919 -0.000000 19.1966886 -10.1704656 0.0000036 69.9338701 -19.0846883 0.0003571 10.3075227
2.0471809 -0.2625866 0.6212285 0.002135 0.002297 0.000004 8.8807498 -7.5133758 0.0000046 61.7376390 -26.8033903 -0.0012172 12.1473537
1.9795673 -0.3278774 0.6212286 0.003038 0.002300 0.000000 1.7517104 -2.1601448 0.0000018 52.3464766 -32.6190916 0.0003122 13.9939807
1.9027511 -0.3799210 0.6212287 0.003637 0.001970 -0.000005 -1.7884048 3.1010314 -0.0000033 43.1150191 -36.5789175 0.0017636 15.9373317
1.8207411 -0.4197017 0.6212289 0.003999 0.001553 0.000011 -2.7184998 6.5644029 -0.0000085 34.6991739 -39.0764278 -0.0041234 17.4874080
1.7374955 -0.4486694 0.6212290 0.003856 0.001036 -0.000006 -2.9230979 9.9987774 -0.0000150 27.4589034 -40.3146828 0.0024435 19.0627941
1.6794075 -0.4610487 0.5668665 0.004228 0.000897 0.000142 -3.0133204 12.8870317 1.2372788 22.8265269 -39.1208530 -4.7285238 19.8509988
1.6960176 -0.4477635 0.5076774 0.004053 0.000923 0.000180 -2.3368490 9.0600760 1.9891172 24.7078574 -40.0325091 -10.9537635 19.4103927
1.7036330 -0.4281002 0.4460541 0.003655 0.000846 0.000243 -2.2161020 7.9542957 2.8446198 25.3489493 -38.4841224 -17.0966215 19.2401170
1.7004080 -0.4024097 0.3846801 0.002605 0.000570 0.000203 -1.9679189 6.6887053 3.4488939 25.4296831 -36.3932209 -23.2915800 18.9423008
1.6854429 -0.3713728 0.3258623 0.001603 0.000282 0.000153 -1.6886407 5.5741387 3.8948522 24.5628733 -33.6010430 -29.1288145 18.9592361
1.6586035 -0.3360618 0.2717078 0.000341 -0.000105 0.000113 -1.3413108 4.4278022 4.0482463 22.9916963 -30.3709544 -34.4599513 18.9039749
1.6204185 -0.2978109 0.2239095 -0.000725 -0.000409 0.000072 -1.0080236 3.4500578 4.0464402 20.7097537 -26.8566694 -39.0417889 19.1653852
1.5719231 -0.2580456 0.1836100 -0.001740 -0.000672 0.000055 -0.7025211 2.6182444 3.9027519 18.0032356 -23.1749935 -42.7999639 19.3400603
1.5144626 -0.2181118 0.1513558 -0.002333 -0.000772 0.000054 -0.4492737 1.9689677 3.7275049 14.9754126 -19.5448474 -45.7108973 19.8085421
1.4495038 -0.1791536 0.1271500 -0.002732 -0.000812 0.000082 -0.2387043 1.4309975 3.4683475 11.9331279 -16.0119687 -47.8966926 20.1241532
1.3784960 -0.1420527 0.1105715 -0.002752 -0.000709 0.000101 -0.0788778 1.0456692 3.3057121 8.9417355 -12.6987113 -49.3725317 20.6897847
1.3028025 -0.1074279 0.1009057 -0.002633 -0.000565 0.000124 0.0458895 0.7199156 3.0711936 6.1948291 -9.6188153 -50.3847022 21.0408139
1.2237322 -0.0756764 0.0972619 -0.002288 -0.000402 0.000120 0.1454750 0.4960782 3.0357089 3.6912857 -6.7957247 -50.8953230 21.6234490
1.1426480 -0.0470288 0.0986386 -0.001998 -0.000243 0.000081 0.2277758 0.3057655 3.0230047 1.5897694 -4.2140033 -51.0560773 21.9141484
1.0617173 -0.0217568 0.1039200 -0.001653 -0.000024 0.000189 0.5336586 0.2422340 5.4509116 -0.2316766 -1.8959426 -50.4950360 22.4543127
1.7682013 0.4352230 0.5583075 0.004029 -0.001233 0.000296 -2.7082061 -7.9960256 0.9993982 30.0743981 39.6255713 -6.2912078 18.4539742
1.7853835 0.4163896 0.4928148 0.003793 -0.001321 0.000027 -2.6743534 -7.1059974 1.9184905 31.7092365 38.3361471 -12.8697469 18.0827176
1.7900686 0.3913101 0.4264157 0.003005 -0.001180 -0.000133 -2.3731842 -5.8102019 2.5445312 32.4257664 36.2816768 -19.7856657 17.7558549
1.7816354 0.3603374 0.3615454 0.001933 -0.000898 -0.000271 -1.9910167 -4.5857472 2.9134854 31.9738258 33.4716326 -26.4574807 17.6288761
1.7598302 0.3244710 0.3006867 0.000577 -0.000500 -0.000415 -1.5931577 -3.5249103 3.0721672 30.4783010 30.0800289 -32.6235002 17.6287150
1.7251300 0.2851267 0.2460253 -0.000747 -0.000084 -0.000483 -1.2384705 -2.6926368 3.1256415 27.9929562 26.3083745 -37.9603406 17.8304429
1.6786621 0.2439074 0.1991568 -0.001896 0.000284 -0.000478 -0.9363385 -2.0539788 3.1333915 24.8112441 22.3544879 -42.3703674 18.1600049
1.6219817 0.2023695 0.1609568 -0.002713 0.000517 -0.000416 -0.6787505 -1.5542373 3.1137090 21.1712594 18.4184394 -45.7567694 18.6260890
1.5568124 0.1618452 0.1316139 -0.003235 0.000645 -0.000313 -0.4632816 -1.1652331 3.1026418 17.3932414 14.6125748 -48.2220749 19.1529631
1.4848325 0.1233535 0.1107674 -0.003337 0.000583 -0.000205 -0.2737183 -0.8321384 3.0297839 13.6559610 11.0929393 -49.8617162 19.7408150
1.4075390 0.0875908 0.0976887 -0.003217 0.000492 -0.000092 -0.1177757 -0.5656404 2.9756533 10.1642411 7.8281332 -50.8682260 20.3274251
1.3261790 0.0549781 0.0914391 -0.002899 0.000306 -0.000007 0.0111065 -0.3333570 2.8315947 7.0027471 4.9164708 -51.4107262 20.9019796
1.2416868 0.0257276 0.0910045 -0.002494 0.000174 0.000060 0.1085602 -0.1459867 2.6594397 4.2125044 2.2864554 -51.6685658 21.4557163
1.1543755 0.0000001 0.0953923 -0.002015 0.000002 0.000210 0.1544251 0.0000025 2.1518580 1.7796507 -0.0012992 -51.9681491 21.9650241
1.8531412 0.4003585 0.5519863 0.003938 -0.001795 -0.000163 -2.5749636 -5.3874724 0.8178977 37.8614741 37.8413074 -7.1476406 16.9369108
1.8691531 0.3753206 0.4804209 0.003215 -0.001698 -0.000295 -2.0288466 -3.7906231 1.2556974 39.7485642 35.7201990 -14.8084239 16.3407439
1.8696001 0.3442434 0.4091474 0.002334 -0.001599 -0.000663 -1.4572418 -2.4831721 1.3541725 40.0795579 32.9385694 -22.3904580 16.1699392
1.8545662 0.3078068 0.3409866 0.000829 -0.001132 -0.000932 -0.9726975 -1.5375121 1.2402893 39.0045594 29.3921253 -29.5973978 16.0287138
1.8245744 0.2673925 0.2786309 -0.000501 -0.000719 -0.001072 -0.7222280 -1.0749008 1.2200670 36.4293847 25.4054737 -35.9410754 16.3104447
1.7808735 0.2247424 0.2242216 -0.001942 -0.000186 -0.001109 -0.5925243 -0.8417095 1.3159751 32.8506219 21.1621422 -41.2293566 16.6145988
1.7252763 0.1816236 0.1790776 -0.002926 0.000128 -0.001029 -0.5662599 -0.7773814 1.6726227 28.4795741 16.9199850 -45.2716172 17.2666796
1.6598408 0.1395726 0.1436566 -0.003667 0.000355 -0.000871 -0.4995217 -0.6702316 2.0237898 23.8612831 12.8535964 -48.1777084 17.8424875
1.5865593 0.0997571 0.1177063 -0.003837 0.000358 -0.000644 -0.4084692 -0.5410334 2.4067092 19.1906944 9.0993947 -50.0603746 18.6652299
1.5071394 0.0629575 0.1004883 -0.003857 0.000320 -0.000423 -0.2691561 -0.3549896 2.5855948 14.8489186 5.6785706 -51.1705376 19.2966143
1.4228621 0.0296272 0.0910078 -0.003452 0.000123 -0.000217 -0.1306103 -0.1727107 2.7220368 10.8231153 2.6771595 -51.6750000 20.1272636
1.3344387 0.0000001 0.0881859 -0.003086 -0.000006 -0.000052 -0.0000475 0.0000020 2.6462688 7.3202353 0.0035267 -51.8090831 20.6908853
1.2416868 -0.0257274 0.0910046 -0.002495 -0.000175 0.000065 0.1084289 0.1458146 2.6562257 4.2119613 -2.2871226 -51.6713968 21.4524399
1.9333950 0.3543023 0.5462382 0.003319 -0.002136 -0.000283 -0.6160162 -0.9188364 0.1724155 46.6873917 34.5840952 -8.1310664 15.1520928
1.9456897 0.3227847 0.4692893 0.002460 -0.002066 -0.000842 0.5537005 0.7274967 -0.3044286 48.4292796 31.7564310 -16.6068977 14.6892613
1.9398713 0.2856793 0.3938587 0.001208 -0.001722 -0.001231 1.3173913 1.5479370 -1.0965998 48.1464136 28.1034706 -24.9580376 14.4820119
1.9165023 0.2442222 0.3233112 -0.000270 -0.001288 -0.001607 1.4346302 1.5213431 -1.6517910 45.8764359 23.9293248 -32.4933250 14.6465448
1.8769351 0.2002229 0.2605038 -0.001804 -0.000712 -0.001764 1.0399130 0.9980704 -1.5987163 42.0093714 19.4134730 -38.8967647 15.0734603
1.8232704 0.1556405 0.2073784 -0.003051 -0.000253 -0.001723 0.4385380 0.3784961 -0.8931942 36.9464439 14.8871780 -43.8504402 15.7630778
1.7579891 0.1122207 0.1648146 -0.003903 0.000087 -0.001505 -0.0481375 -0.0364843 0.1314031 31.3530171 10.5586711 -47.4339491 16.5787485
1.6835282 0.0712908 0.1327580 -0.004267 0.000182 -0.001184 -0.3040210 -0.1895620 1.1476595 25.6460070 6.6085668 -49.7382513 17.4889830
1.6019575 0.0337209 0.1105018 -0.004262 0.000162 -0.000830 -0.3539424 -0.1469284 1.9626361 20.2029510 3.0664634 -51.0471716 18.4011388
1.5147907 0.0000002 0.0969797 -0.003948 0.000000 -0.000494 -0.2660959 0.0000016 2.4446716 15.2391333 -0.0012298 -51.6137450 19.2911960
1.4228621 -0.0296269 0.0910078 -0.003456 -0.000123 -0.000217 -0.1306117 0.1727165 2.7220658 10.8255379 -2.6784852 -51.6750213 20.1290654
1.3261790 -0.0549778 0.0914392 -0.002896 -0.000300 -0.000008 0.0111123 0.3335340 2.8330609 7.0010921 -4.9225629 -51.4083906 20.9031386
2.0059984 0.2956396 0.5409124 0.002475 -0.002319 -0.000562 4.2881923 4.4771825 -1.0856665 56.0011250 29.7589924 -9.0595098 13.2809209
2.0120006 0.2577489 0.4594415 0.001450 -0.002063 -0.001177 6.0403367 5.4090382 -3.0354239 57.1491798 26.0307668 -18.3918753 12.7890605
1.9976867 0.2152878 0.3810090 0.000100 -0.001707 -0.001837 6.2217018 4.7906025 -4.7799013 55.6482304 21.6952703 -27.1871525 12.9098811
1.9642673 0.1700796 0.3094002 -0.001468 -0.001056 -0.002202 5.0638662 3.3172703 -5.4329369 51.8552857 16.9628606 -34.9154662 13.2594032
1.9140293 0.1242392 0.2474359 -0.002801 -0.000607 -0.002311 3.1906864 1.7209132 -4.6157631 46.2778185 12.2480099 -41.0886657 14.1193635
1.8499064 0.0797115 0.1966556 -0.003899 -0.000144 -0.002163 1.4991109 0.6130882 -2.9033755 39.7520749 7.7022793 -45.6081905 15.0173907
1.7748976 0.0379807 0.1573811 -0.004374 -0.000047 -0.001769 0.3396458 0.0824150 -0.8922673 32.8910774 3.6281966 -48.5900520 16.2066840
1.6916022 0.0000002 0.1290300 -0.004560 -0.000002 -0.001321 -0.2031052 0.0000004 0.7492652 26.2970381 0.0011895 -50.2959116 17.2234486
1.6019575 -0.0337205 0.1105019 -0.004258 -0.000165 -0.000830 -0.3539596 0.1469379 1.9627309 20.2011710 -3.0663340 -51.0470839 18.3990204
1.5071394 -0.0629571 0.1004884 -0.003857 -0.000325 -0.000422 -0.2691489 0.3549836 2.5855256 14.8487197 -5.6758756 -51.1710898 19.2966593
1.4075390 -0.0875905 0.0976888 -0.003216 -0.000500 -0.000091 -0.1177494 0.5655182 2.9749873 10.1630220 -7.8248298 -50.8694261 20.3249124
2.0668970 0.2238566 0.5362880 0.001498 -0.002160 -0.000776 12.6344178 8.7240064 -2.9704537 64.7799742 23.0051814 -9.9029282 11.4340442
2.0640909 0.1804690 0.4514779 0.000377 -0.001733 -0.001653 13.8238889 7.7226462 -6.5223620 64.6879285 18.5246248 -19.7786576 11.2562222
2.0392888 0.1342509 0.3715410 -0.000943 -0.001210 -0.002283 12.0795723 5.2776503 -8.8065957 61.5552245 13.7003660 -28.8763579 11.6074756
1.9946200 0.0874370 0.3003973 -0.002351 -0.000666 -0.002680 8.4846366 2.6580232 -8.7327259 55.9290861 8.8301363 -36.4680908 12.4512257
1.9333291 0.0421454 0.2405494 -0.003460 -0.000163 -0.002634 4.7227298 0.8223147 -6.6310145 48.6673115 4.1550859 -42.2715417 13.5811600
1.8590049 0.0000003 0.1929655 -0.004136 -0.000000 -0.002291 1.9355830 -0.0000018 -3.6871887 40.7544082 -0.0003909 -46.2334885 14.8870490
1.7748976 -0.0379802 0.1573811 -0.004379 0.000046 -0.001771 0.3396705 -0.0824220 -0.8923321 32.8931364 -3.6286310 -48.5896213 16.2075326
1.6835282 -0.0712904 0.1327581 -0.004266 -0.000180 -0.001185 -0.3040202 0.1895628 1.1476562 25.6454400 -6.6110143 -49.7379781 17.4897976