# volRat = 0.650000
# viscRat = 5.000000
# alpha = 1.000000
# shRate = 2.250000
# tnum = 10800
# time = 11.526334
VARIABLES = X, Y, Z, U, V, W, F_B0, F_B1, F_B2, F_0, F_1, F_2, T
ZONE N=2562 E=5120 F=FEPOINT ET=TRIANGLE
1.6535106 0.4684851 0.6212284 0.002953 -0.000557 0.000007 2.9990192 14.3532102 0.0000175 23.2746403 51.1218053 -0.0024579 20.0687577
-1.6535106 0.4684851 0.6212284 -0.002953 -0.000557 0.000007 -2.9990093 14.3532113 0.0000180 -23.2746319 51.1218055 -0.0024576 20.0687576
1.6535107 -0.4684832 0.6212284 0.002956 0.000556 0.000004 2.9989776 -14.3530567 0.0000182 23.2736457 -51.1212646 -0.0007602 20.0666559
-1.6535107 -0.4684832 0.6212284 -0.002956 0.000555 0.000004 -2.9989876 -14.3530567 0.0000176 -23.2736542 -51.1212645 -0.0007605 20.0666556
0.9825891 0.0000002 1.1302139 -0.001728 -0.000009 -0.000320 -1.9647061 -0.0000528 17.5821149 -2.4991125 0.0058064 59.6550222 22.6332908
0.9825882 0.0000002 0.1122416 -0.001733 -0.000002 -0.000006 -1.8953774 -0.0000339 -16.9616763 -2.4511310 -0.0015034 -59.0455714 22.6311542
-0.9825891 0.0000002 1.1302139 0.001728 -0.000009 -0.000320 1.9647055 0.0000039 17.5821091 2.4991117 0.0058387 59.6550159 22.6332906
-0.9825882 0.0000002 0.1122416 0.001733 -0.000002 -0.000006 1.8953774 -0.0000219 -16.9616755 2.4511308 -0.0014961 -59.0455703 22.6311540
-0.0000000 0.3394517 0.8381063 0.000000 -0.005740 -0.002668 0.0000160 -57.2728759 -33.0515344 0.0000154 -4.8343146 1.0746229 25.6087373
-0.0000000 -0.3394516 0.8381064 0.000000 0.002948 -0.001062 0.0000023 68.6554654 -39.6227183 0.0000022 16.0682759 -5.2733673 25.6113056
-0.0000000 0.3394586 0.4043484 0.000000 0.004849 -0.003188 0.0000004 -83.8635086 48.3956440 0.0000004 -30.9776661 13.5793997 25.7112469
-0.0000000 -0.3394561 0.4043496 0.000000 -0.003221 -0.002380 0.0000029 83.0997231 47.9590407 0.0000026 30.2479678 13.2595362 25.6595698
1.6764652 0.4617563 0.6755795 0.004201 -0.000890 -0.000153 -2.9661040 -12.8473569 -1.2311868 22.6590323 39.1922696 4.7277298 19.8811636
1.6932944 0.4484868 0.7347607 0.004034 -0.000920 -0.000189 -2.3179814 -9.0911934 -1.9922313 24.5214087 40.0436801 10.9327647 19.4484539
1.7011627 0.4288120 0.7963843 0.003637 -0.000832 -0.000275 -2.2017645 -7.9860457 -2.8507221 25.1776156 38.4958309 17.0778731 19.2693894
1.6982060 0.4030803 0.8577687 0.002571 -0.000561 -0.000217 -1.9582517 -6.7195896 -3.4587204 25.2834173 36.4114398 23.2559245 18.9683260
1.6835087 0.3719725 0.9166056 0.001590 -0.000266 -0.000185 -1.6814669 -5.5989943 -3.9058653 24.4318900 33.6182074 29.1016215 18.9803677
1.6569222 0.3365652 0.9707841 0.000319 0.000118 -0.000138 -1.3362062 -4.4464351 -4.0594653 22.8880137 30.3899120 34.4303513 18.9271898
1.6189634 0.2982002 1.0186058 -0.000748 0.000422 -0.000094 -1.0039014 -3.4617795 -4.0553950 20.6305063 26.8699752 39.0189466 19.1704905
1.5706590 0.2583135 1.0589228 -0.001757 0.000676 -0.000070 -0.6990661 -2.6243102 -3.9083731 17.9411660 23.1890982 42.7804359 19.3563074
1.5133488 0.2182624 1.0911845 -0.002338 0.000783 -0.000073 -0.4464051 -1.9712528 -3.7299111 14.9239958 19.5459082 45.7021676 19.8150967
1.4484976 0.1792019 1.1153858 -0.002761 0.000805 -0.000090 -0.2364328 -1.4308944 -3.4677317 11.9057790 16.0180212 47.8879288 20.1280234
1.3775552 0.1420223 1.1319475 -0.002752 0.000719 -0.000115 -0.0772083 -1.0453281 -3.3057707 8.9095299 12.6867439 49.3713256 20.6930883
1.3018880 0.1073482 1.1415863 -0.002636 0.000558 -0.000124 0.0472215 -0.7202130 -3.0749815 6.1714128 9.6172667 50.3767819 21.0562890
1.2228112 0.0755790 1.1451961 -0.002300 0.000394 -0.000142 0.1457752 -0.4928122 -3.0196496 3.6753318 6.7847899 50.9117329 21.6125138
1.1416971 0.0469433 1.1437828 -0.002011 0.000234 -0.000152 0.2223455 -0.2967242 -2.9388130 1.5765301 4.2161213 51.1387924 21.9322591
1.0607270 0.0217072 1.1384679 -0.001637 0.000025 -0.000062 0.5484506 -0.2477288 -5.5865465 -0.2461192 1.8707224 50.3637906 22.4619532
1.7657423 -0.4360730 0.6841378 0.004017 0.001231 -0.000311 -2.6945552 8.0335497 -1.0019201 29.8830596 -39.6606183 6.2848014 18.4923534
1.7831646 -0.4172401 0.7496297 0.003774 0.001315 -0.000034 -2.6726562 7.1643373 -1.9299923 31.5261211 -38.3553367 12.8449596 18.1130410
1.7881018 -0.3921254 0.8160404 0.002995 0.001169 0.000104 -2.3771934 5.8667462 -2.5637677 32.2552914 -36.3044861 19.7588265 17.7872531
1.7799182 -0.3610825 0.8809333 0.001926 0.000886 0.000242 -1.9966522 4.6322601 -2.9370326 31.8270547 -33.4982171 26.4263505 17.6550851
1.7583454 -0.3251151 0.9418207 0.000553 0.000483 0.000391 -1.5982037 3.5595362 -3.0965358 30.3633652 -30.1046071 32.5908505 17.6448174
1.7238489 -0.2856475 0.9965103 -0.000758 0.000069 0.000458 -1.2410675 2.7146515 -3.1459942 27.8972943 -26.3321439 37.9328478 17.8473673
1.6775479 -0.2442945 1.0434003 -0.001908 -0.000300 0.000454 -0.9365990 2.0660841 -3.1475258 24.7377965 -22.3724878 42.3497579 18.1738977
1.6209936 -0.2026255 1.0816106 -0.002729 -0.000528 0.000400 -0.6779192 1.5606404 -3.1232717 21.1177937 -18.4320050 45.7385701 18.6281135
1.5559088 -0.1619849 1.1109503 -0.003239 -0.000659 0.000296 -0.4617140 1.1676352 -3.1069844 17.3481613 -14.6181087 48.2116750 19.1617755
1.4839734 -0.1234015 1.1317806 -0.003325 -0.000584 0.000193 -0.2721998 0.8329312 -3.0319791 13.6144036 -11.0974992 49.8527491 19.7471895
1.4066884 -0.0875783 1.1448325 -0.003233 -0.000495 0.000083 -0.1163546 0.5653923 -2.9750737 10.1425249 -7.8273175 50.8631981 20.3235146
1.3253072 -0.0549389 1.1510481 -0.002877 -0.000310 -0.000005 0.0122378 0.3325956 -2.8272138 6.9686068 -4.9140348 51.4105399 20.9062476
1.2407737 -0.0256943 1.1514460 -0.002478 -0.000162 -0.000072 0.1092978 0.1455149 -2.6541122 4.1841841 -2.2937339 51.6690618 21.4639402
1.1534148 0.0000003 1.1470236 -0.002022 0.000004 -0.000072 0.1633243 0.0000030 -2.2657998 1.7672394 -0.0032800 51.8535722 21.9490878
1.8511779 -0.4013065 0.6904676 0.003933 0.001792 0.000151 -2.5941294 5.4695766 -0.8283177 37.6679609 -37.8661659 7.1387450 16.9691524
1.8674352 -0.3762447 0.7620456 0.003214 0.001697 0.000285 -2.0574533 3.8710652 -1.2792060 39.5692634 -35.7508780 14.7842349 16.3689892
1.8681194 -0.3451008 0.8333459 0.002316 0.001592 0.000654 -1.4871522 2.5503155 -1.3874965 39.9292825 -32.9699195 22.3585486 16.1906744
1.8533013 -0.3085599 0.9015421 0.000816 0.001121 0.000913 -0.9985002 1.5874628 -1.2777279 38.8767972 -29.4220914 29.5665230 16.0478340
1.8234921 -0.2680137 0.9639333 -0.000530 0.000703 0.001057 -0.7384397 1.1048454 -1.2514968 36.3284428 -25.4376864 35.9132882 16.3257815
1.7799336 -0.2252177 1.0183701 -0.001974 0.000174 0.001098 -0.6025540 0.8601054 -1.3423185 32.7770735 -21.1841245 41.2023363 16.6197713
1.7244363 -0.1819542 1.0635279 -0.002944 -0.000142 0.001012 -0.5718747 0.7886171 -1.6942475 28.4215850 -16.9367874 45.2458832 17.2761710
1.6590595 -0.1397739 1.0989469 -0.003688 -0.000363 0.000859 -0.5004695 0.6743876 -2.0339913 23.8161965 -12.8631802 48.1636478 17.8511920
1.5857993 -0.0998554 1.1248807 -0.003870 -0.000367 0.000634 -0.4079344 0.5427066 -2.4123454 19.1625406 -9.1026981 50.0487320 18.6650410
1.5063685 -0.0629867 1.1420706 -0.003871 -0.000330 0.000410 -0.2680879 0.3554555 -2.5882211 14.8208292 -5.6757525 51.1633890 19.3065152
1.4220550 -0.0296238 1.1515160 -0.003451 -0.000123 0.000205 -0.1293941 0.1726985 -2.7223497 10.7946957 -2.6757645 51.6700860 20.1373032
1.3335797 0.0000004 1.1543002 -0.003117 -0.000004 0.000044 0.0010231 0.0000033 -2.6498760 7.3112569 0.0022972 51.8018089 20.6913055
1.2407736 0.0256949 1.1514460 -0.002479 0.000159 -0.000067 0.1095052 -0.1457838 -2.6591474 4.1853794 2.2941799 51.6643411 21.4661171
1.9319303 -0.3552857 0.6962316 0.003318 0.002143 0.000286 -0.6754101 1.0137768 -0.1897280 46.5080999 -34.6212286 8.1156099 15.1780827
1.9444568 -0.3237080 0.7732120 0.002460 0.002070 0.000825 0.4900809 -0.6476108 0.2702938 48.2701425 -31.7943328 16.5886274 14.7125128
1.9388423 -0.2864975 0.8486865 0.001202 0.001725 0.001218 1.2621893 -1.4908737 1.0535305 48.0127067 -28.1423080 24.9329935 14.5002170
1.9156374 -0.2449010 0.9192797 -0.000298 0.001281 0.001602 1.3932537 -1.4845851 1.6080927 45.7711263 -23.9637978 32.4623152 14.6554148
1.8761880 -0.2007443 0.9821237 -0.001821 0.000702 0.001748 1.0150054 -0.9784800 1.5639724 41.9261339 -19.4398832 38.8745400 15.0837833
1.8225945 -0.1560043 1.0352689 -0.003065 0.000246 0.001709 0.4249974 -0.3683133 0.8675211 36.8800287 -14.9079378 43.8299763 15.7696321
1.7573425 -0.1124433 1.0778331 -0.003934 -0.000101 0.001496 -0.0536203 0.0407964 -0.1467015 31.3076559 -10.5704438 47.4176126 16.5782682
1.6828754 -0.0714012 1.1098727 -0.004276 -0.000189 0.001172 -0.3059742 0.1914968 -1.1579628 25.6017954 -6.6156075 49.7257235 17.4933673
1.6012705 -0.0337559 1.1320988 -0.004267 -0.000162 0.000818 -0.3539120 0.1474992 -1.9686790 20.1651957 -3.0714407 51.0368123 18.4058706
1.5140491 0.0000005 1.1455835 -0.003962 0.000001 0.000485 -0.2651886 0.0000026 -2.4476268 15.2120157 -0.0016103 51.6047683 19.2858880
1.4220549 0.0296247 1.1515160 -0.003450 0.000122 0.000206 -0.1294068 -0.1727091 -2.7226165 10.7937246 2.6751027 51.6696083 20.1344899
1.3253072 0.0549397 1.1510482 -0.002878 0.000314 -0.000006 0.0122381 -0.3325956 -2.8272756 6.9689156 4.9093205 51.4112135 20.9063420
2.0050132 -0.2965745 0.7015790 0.002476 0.002333 0.000560 4.1932865 -4.4011746 1.0642993 55.8486676 -29.8004420 9.0493743 13.2995233
2.0112128 -0.2585793 0.7831028 0.001437 0.002075 0.001188 5.9552484 -5.3587667 2.9991116 57.0228494 -26.0707897 18.3687840 12.7987015
1.9970484 -0.2159731 0.8615940 0.000080 0.001708 0.001835 6.1584805 -4.7632593 4.7403490 55.5467480 -21.7284775 27.1665025 12.9190968
1.9637232 -0.1705973 0.9332526 -0.001502 0.001052 0.002205 5.0234503 -3.3045561 5.3990199 51.7778762 -16.9891830 34.8934052 13.2642426
1.9135260 -0.1245878 0.9952468 -0.002843 0.000606 0.002316 3.1660224 -1.7142873 4.5878426 46.2180592 -12.2662958 41.0655017 14.1184687
1.8493989 -0.0799088 1.0460329 -0.003930 0.000140 0.002159 1.4890733 -0.6112306 2.8889677 39.7059017 -7.7131210 45.5963897 15.0212243
1.7743514 -0.0380587 1.0852914 -0.004408 0.000039 0.001764 0.3344185 -0.0814360 0.8802368 32.8525800 -3.6298795 48.5772381 16.2114775
1.6909931 0.0000006 1.1136108 -0.004605 -0.000002 0.001318 -0.2054210 0.0000006 -0.7595898 26.2684990 0.0008325 50.2809559 17.2234833
1.6012705 0.0337569 1.1320989 -0.004271 0.000160 0.000818 -0.3538904 -0.1474865 -1.9685594 20.1670046 3.0718188 51.0369527 18.4076732
1.5063684 0.0629876 1.1420708 -0.003869 0.000324 0.000411 -0.2680896 -0.3554523 -2.5882381 14.8201506 5.6787722 51.1628994 19.3071823
1.4066883 0.0875792 1.1448328 -0.003235 0.000491 0.000082 -0.1163449 -0.5653388 -2.9748292 10.1436620 7.8288166 50.8633826 20.3259770
2.0663388 -0.2246407 0.7062276 0.001491 0.002177 0.000771 12.5366897 -8.6959316 2.9525833 64.6635120 -23.0442269 9.8963959 11.4421345
2.0636725 -0.1811038 0.7911097 0.000362 0.001747 0.001653 13.7513049 -7.7148873 6.4979595 64.5928942 -18.5577741 19.7657699 11.2595059
2.0389444 -0.1347100 0.8711131 -0.000977 0.001215 0.002296 12.0324981 -5.2782472 8.7845026 61.4818332 -13.7253832 28.8573226 11.6039163
1.9942863 -0.0877179 0.9423017 -0.002378 0.000664 0.002677 8.4536579 -2.6584458 8.7126724 55.8666137 -8.8466036 36.4500923 12.4509551
1.9329552 -0.0422676 1.0021657 -0.003494 0.000165 0.002636 4.7053690 -0.8222962 6.6160416 48.6167251 -4.1650382 42.2591111 13.5813091
1.8585552 0.0000007 1.0497381 -0.004195 0.000001 0.002304 1.9120204 -0.0000023 3.6481319 40.6924261 -0.0007395 46.1955449 14.8825876
1.7743514 0.0380600 1.0852915 -0.004406 -0.000040 0.001764 0.3343865 0.0814269 0.8801527 32.8514578 3.6296634 48.5771441 16.2097894
1.6828754 0.0714024 1.1098728 -0.004276 0.000190 0.001171 -0.3059733 -0.1914943 -1.1579597 25.6017246 6.6137170 49.7261174 17.4932201
1.5857993 0.0998565 1.1248809 -0.003867 0.000367 0.000634 -0.4079491 -0.5427217 -2.4124338 19.1611134 9.1014140 50.0488328 18.6629567
1.4839733 0.1234025 1.1317809 -0.003328 0.000587 0.000192 -0.2721924 -0.8329026 -3.0318997 13.6154748 11.0943615 49.8538233 19.7461351
2.1111429 -0.1406295 0.7097346 0.000555 0.001563 0.000985 22.5585813 -8.9219297 5.0576498 71.6013763 -14.5485188 10.4956771 9.8926816
2.0974972 -0.0934640 0.7964023 -0.000433 0.001015 0.001903 21.3575557 -5.7589823 9.7185833 69.8161008 -9.6470016 20.6952610 10.0105000
2.0609863 -0.0458276 0.8762099 -0.001607 0.000455 0.002580 16.2060363 -2.3049233 11.5262483 64.7481359 -4.6994976 29.7312649 10.8803197
2.0047953 0.0000008 0.9454471 -0.002706 -0.000001 0.002829 9.9445935 -0.0000043 10.1084429 57.3279456 0.0002809 37.0227860 12.0250790
1.9329552 0.0422691 1.0021658 -0.003498 -0.000167 0.002637 4.7054118 0.8222968 6.6161027 48.6181483 4.1653145 42.2586579 13.5825076
1.8493989 0.0799102 1.0460330 -0.003929 -0.000142 0.002159 1.4890768 0.6112284 2.8889753 39.7054865 7.7143605 45.5963386 15.0215645
1.7573425 0.1124446 1.0778333 -0.003937 0.000099 0.001497 -0.0535889 -0.0407723 -0.1466156 31.3089112 10.5710424 47.4174983 16.5798527
1.6590594 0.1397751 1.0989471 -0.003688 0.000360 0.000860 -0.5004696 -0.6743843 -2.0339927 23.8161957 12.8649917 48.1629240 17.8516877
1.5559087 0.1619860 1.1109506 -0.003240 0.000655 0.000297 -0.4617059 -1.1676092 -3.1069328 17.3488831 14.6198910 48.2112033 19.1641746
2.1349436 -0.0479377 0.7116382 -0.000010 0.000563 0.001087 29.7107054 -3.8191228 6.5004581 75.3731783 -4.9563601 10.8014870 9.0044514
2.1092186 0.0000009 0.7982616 -0.000762 0.000000 0.002047 24.4940948 -0.0000027 11.0074579 71.6357193 -0.0003273 20.9802476 9.6494112
2.0609863 0.0458293 0.8762099 -0.001605 -0.000456 0.002578 16.2059951 2.3049098 11.5262205 64.7473576 4.6994903 29.7315957 10.8795697
1.9942863 0.0877195 0.9423018 -0.002378 -0.000664 0.002677 8.4536554 2.6584378 8.7126721 55.8665386 8.8458011 36.4503712 12.4506961
1.9135260 0.1245893 0.9952469 -0.002840 -0.000606 0.002315 3.1659868 1.7142633 4.5877929 46.2168908 12.2656509 41.0659490 14.1171956
1.8225944 0.1560058 1.0352691 -0.003067 -0.000245 0.001709 0.4249964 0.3683114 0.8675194 36.8807271 14.9066359 43.8302119 15.7690545
1.7244362 0.1819555 1.0635282 -0.002940 0.000142 0.001011 -0.5718941 -0.7886416 -1.6943065 28.4199521 16.9357415 45.2464373 17.2746025
1.6209935 0.2026267 1.0816109 -0.002731 0.000529 0.000399 -0.6779126 -1.5606205 -3.1232447 21.1184835 18.4299434 45.7396827 18.6271026
2.1349436 0.0479396 0.7116382 -0.000011 -0.000564 0.001089 29.7107445 3.8191252 6.5004675 75.3737111 4.9564829 10.8007228 9.0052629
2.0974972 0.0934658 0.7964023 -0.000433 -0.001017 0.001902 21.3575643 5.7589799 9.7185897 69.8159892 9.6474698 20.6954087 10.0105404
2.0389444 0.1347117 0.8711132 -0.000979 -0.001217 0.002298 12.0325394 5.2782598 8.7845362 61.4826359 13.7256839 28.8567739 11.6047502
1.9637232 0.1705990 0.9332527 -0.001502 -0.001053 0.002206 5.0234612 3.3045590 5.3990346 51.7779938 16.9899374 34.8929771 13.2647997
1.8761879 0.2007459 0.9821239 -0.001822 -0.000706 0.001749 1.0150412 0.9785130 1.5640286 41.9266575 19.4408223 38.8741378 15.0850652
1.7799335 0.2252191 1.0183704 -0.001973 -0.000176 0.001099 -0.6025467 -0.8600934 -1.3423034 32.7768443 21.1851882 41.2018047 16.6206253
1.6775478 0.2442958 1.0434007 -0.001911 0.000296 0.000456 -0.9365820 -2.0660426 -3.1474721 24.7389937 22.3737968 42.3488905 18.1754829
2.1111429 0.1406314 0.7097346 0.000556 -0.001564 0.000983 22.5585402 8.9219116 5.0576424 71.6007749 14.5485283 10.4963137 9.8919702
2.0636725 0.1811056 0.7911098 0.000361 -0.001747 0.001653 13.7512999 7.7148818 6.4979604 64.5932256 18.5571139 19.7656380 11.2593769
1.9970484 0.2159749 0.8615941 0.000083 -0.001708 0.001832 6.1584421 4.7632269 4.7403226 55.5455919 21.7281039 27.1674872 12.9180025
1.9156374 0.2449027 0.9192799 -0.000300 -0.001280 0.001602 1.3932455 1.4845753 1.6080846 45.7716544 23.9627906 32.4626721 14.6547468
1.8234920 0.2680153 0.9639336 -0.000528 -0.000702 0.001055 -0.7384657 -1.1048830 -1.2515420 36.3277120 25.4366084 35.9140545 16.3242767
1.7238488 0.2856490 0.9965107 -0.000758 -0.000070 0.000457 -1.2410684 -2.7146503 -3.1460003 27.8975266 26.3311070 37.9336562 17.8464626
2.0663388 0.2246425 0.7062276 0.001490 -0.002179 0.000773 12.5367209 8.6959526 2.9525925 64.6638177 23.0444847 9.8960334 11.4425875
2.0112128 0.2585812 0.7831030 0.001437 -0.002076 0.001189 5.9552607 5.3587767 2.9991200 57.0228763 26.0713149 18.3684444 12.7993035
1.9388423 0.2864993 0.8486867 0.001200 -0.001727 0.001221 1.2622246 1.4909148 1.0535609 48.0134269 28.1428963 24.9320366 14.5012336
1.8533012 0.3085616 0.9015424 0.000817 -0.001124 0.000913 -0.9984854 -1.5874385 -1.2777103 38.8762290 29.4231468 29.5660088 16.0489656
1.7583453 0.3251167 0.9418211 0.000551 -0.000486 0.000393 -1.5981792 -3.5594794 -3.0964925 30.3639988 30.1054942 32.5899921 17.6461470
2.0050132 0.2965763 0.7015791 0.002478 -0.002334 0.000557 4.1932494 4.4011356 1.0642908 55.8480164 29.8002213 9.0502010 13.2987574
1.9444567 0.3237099 0.7732121 0.002460 -0.002070 0.000824 0.4900683 0.6475942 0.2702871 48.2703258 31.7937514 16.5890513 14.7118497
1.8681193 0.3451026 0.8333461 0.002318 -0.001591 0.000651 -1.4871869 -2.5503745 -1.3875305 39.9285289 32.9690447 22.3599028 16.1892829
1.7799181 0.3610843 0.8809336 0.001924 -0.000886 0.000242 -1.9966613 -4.6322798 -2.9370500 31.8280284 33.4973189 26.4267561 17.6539426
1.9319303 0.3552876 0.6962316 0.003317 -0.002145 0.000289 -0.6753850 -1.0137392 -0.1897212 46.5086104 34.6214407 8.1146858 15.1787182
1.8674351 0.3762466 0.7620457 0.003213 -0.001699 0.000287 -2.0574324 -3.8710259 -1.2791946 39.5693877 35.7516086 14.7832687 16.3702689
1.7881017 0.3921272 0.8160407 0.002995 -0.001172 0.000107 -2.3771671 -5.8666809 -2.5637430 32.2551941 36.3052979 19.7578541 17.7884578
1.8511778 0.4013084 0.6904677 0.003937 -0.001794 0.000145 -2.5941641 -5.4696503 -0.8283299 37.6664524 37.8659803 7.1409123 16.9678786
1.7831645 0.4172420 0.7496299 0.003773 -0.001315 -0.000035 -2.6726697 -7.1643737 -1.9300048 31.5270020 38.3545812 12.8450643 18.1119329
1.7657423 0.4360749 0.6841379 0.004013 -0.001231 -0.000308 -2.6945342 -8.0334880 -1.0019137 29.8844335 39.6606302 6.2838093 18.4929553
1.7348141 0.4494829 0.6212282 0.003836 -0.001036 -0.000004 -2.9027845 -10.0382163 -0.0000078 27.2568053 40.3229808 0.0008240 19.0988040
1.8185332 0.4206299 0.6212280 0.003991 -0.001554 0.000013 -2.7235566 -6.6330723 -0.0000028 34.4994328 39.0986135 -0.0044009 17.5220355
1.9010405 0.3809164 0.6212278 0.003640 -0.001977 -0.000002 -1.8317068 -3.1981725 -0.0000001 42.9219896 36.6110008 0.0007062 15.9682368
1.9783511 0.3288676 0.6212276 0.003040 -0.002313 0.000002 1.6662428 2.0665480 -0.0000009 52.1760448 32.6593479 -0.0000403 14.0173350
2.0464274 0.2634771 0.6212275 0.002134 -0.002318 0.000004 8.7725090 7.4580364 -0.0000083 61.6004713 26.8457114 -0.0009592 12.1592770
2.1005104 0.1849775 0.6212274 0.001190 -0.001941 0.000002 19.1107302 10.1684712 -0.0000225 69.8339272 19.1185301 -0.0003156 10.3091321
2.1356392 0.0956175 0.6212273 0.000444 -0.001128 -0.000002 28.9798206 7.4259059 -0.0000375 75.3913877 9.9059565 0.0009740 9.0959564
2.1478606 0.0000009 0.6212272 0.000154 -0.000001 0.000006 33.2261867 -0.0000008 -0.0000442 77.3532969 0.0002804 -0.0016735 8.5368617
2.1356392 -0.0956157 0.6212273 0.000445 0.001129 -0.000002 28.9798217 -7.4259075 -0.0000374 75.3912498 -9.9066945 0.0008536 9.0962462
2.1005104 -0.1849757 0.6212274 0.001190 0.001940 0.000002 19.1107218 -10.1684673 -0.0000223 69.8339572 -19.1180894 -0.0001634 10.3086355
2.0464274 -0.2634752 0.6212275 0.002135 0.002318 0.000003 8.7725148 -7.4580413 -0.0000082 61.6001254 -26.8463417 -0.0005939 12.1595010
1.9783511 -0.3288657 0.6212276 0.003040 0.002311 0.000002 1.6662325 -2.0665351 -0.0000009 52.1762356 -32.6587439 -0.0002837 14.0167822
1.9010405 -0.3809145 0.6212278 0.003641 0.001978 -0.000003 -1.8316995 3.1981596 -0.0000002 42.9211612 -36.6117701 0.0013402 15.9686029
1.8185333 -0.4206280 0.6212280 0.003991 0.001552 0.000010 -2.7235745 6.6331150 -0.0000030 34.4996345 -39.0979460 -0.0033074 17.5205955
1.7348142 -0.4494810 0.6212282 0.003836 0.001035 -0.000003 -2.9027740 10.0381784 -0.0000080 27.2567079 -40.3234921 0.0014423 19.0994721
1.6764652 -0.4617546 0.5668772 0.004202 0.000891 0.000148 -2.9660503 12.8471309 1.2311380 22.6581232 -39.1938624 -4.7236933 19.8850972
1.6932942 -0.4484851 0.5076960 0.004026 0.000915 0.000197 -2.3180117 9.0913248 1.9922399 24.5246132 -40.0413934 -10.9363473 19.4447735
1.7011624 -0.4288106 0.4460723 0.003634 0.000836 0.000267 -2.2017201 7.9859031 2.8506514 25.1783489 -38.4986744 -17.0717719 19.2714484
1.6982056 -0.4030790 0.3846879 0.002579 0.000558 0.000229 -1.9582738 6.7196879 3.4587513 25.2796528 -36.4097153 -23.2606769 18.9684784
1.6835082 -0.3719714 0.3258509 0.001583 0.000268 0.000183 -1.6814374 5.5989215 3.9057937 24.4341314 -33.6205718 -29.0982210 18.9816080
1.6569215 -0.3365642 0.2716724 0.000322 -0.000120 0.000143 -1.3362113 4.4464783 4.0594828 22.8868983 -30.3889947 -34.4318193 18.9239033
1.6189626 -0.2981994 0.2238506 -0.000743 -0.000420 0.000097 -1.0038928 3.4617760 4.0553670 20.6280157 -26.8727918 -39.0174809 19.1766826
1.5706581 -0.2583129 0.1835335 -0.001755 -0.000682 0.000078 -0.6990656 2.6243335 3.9083815 17.9400989 -23.1861261 -42.7826307 19.3517515
1.5133479 -0.2182619 0.1512717 -0.002342 -0.000778 0.000073 -0.4463838 1.9711836 3.7297507 14.9257529 -19.5511615 -45.6994315 19.8164039
1.4484966 -0.1792015 0.1270704 -0.002749 -0.000815 0.000098 -0.2364767 1.4311860 3.4684051 11.8996021 -16.0131290 -47.8896687 20.1289682
1.3775542 -0.1420220 0.1105085 -0.002754 -0.000714 0.000117 -0.0771913 1.0451323 3.3051112 8.9107042 -12.6925432 -49.3697424 20.6939407
1.3018870 -0.1073479 0.1008696 -0.002634 -0.000562 0.000137 0.0471158 0.7185940 3.0680223 6.1700456 -9.6150283 -50.3845048 21.0485829
1.2228102 -0.0755787 0.0972598 -0.002291 -0.000400 0.000123 0.1469836 0.4969031 3.0446535 3.6719929 -6.7858381 -50.8856756 21.6218831
1.1416961 -0.0469430 0.0986730 -0.002002 -0.000240 0.000121 0.2267610 0.3026293 2.9971596 1.5739014 -4.2100675 -51.0806826 21.9223712
1.0607260 -0.0217068 0.1039879 -0.001636 -0.000012 0.000222 0.5315937 0.2401337 5.4148217 -0.2572014 -1.8929425 -50.5307536 22.4595366
1.7657421 0.4360750 0.5583183 0.004021 -0.001232 0.000308 -2.6946088 -8.0337165 1.0019318 29.8827300 39.6598389 -6.2819042 18.4896132
1.7831642 0.4172422 0.4928262 0.003777 -0.001315 0.000043 -2.6726399 -7.1643049 1.9299778 31.5242665 38.3550316 -12.8478920 18.1148374
1.7881012 0.3921276 0.4264153 0.002990 -0.001168 -0.000105 -2.3772320 -5.8668545 2.5638118 32.2576355 36.3032787 -19.7567362 17.7838573
1.7799175 0.3610847 0.3615223 0.001919 -0.000886 -0.000242 -1.9966412 -4.6322475 2.9370231 31.8297628 33.4976469 -26.4252185 17.6546139
1.7583446 0.3251172 0.3006347 0.000557 -0.000483 -0.000386 -1.5982331 -3.5596133 3.0966026 30.3617732 30.1032365 -32.5919081 17.6453182
1.7238479 0.2856495 0.2459451 -0.000769 -0.000069 -0.000458 -1.2410602 -2.7146455 3.1459880 27.9014573 26.3312812 -37.9317498 17.8461572
1.6775468 0.2442964 0.1990550 -0.001915 0.000298 -0.000454 -0.9366131 -2.0661233 3.1475875 24.7405738 22.3713579 -42.3491847 18.1708164
1.6209924 0.2026273 0.1608447 -0.002732 0.000527 -0.000397 -0.6779044 -1.5606127 3.1232207 21.1183186 18.4315042 -45.7389134 18.6330116
1.5559076 0.1619864 0.1315050 -0.003246 0.000658 -0.000293 -0.4617305 -1.1676815 3.1071159 17.3506523 14.6159852 -48.2117467 19.1581946
1.4839722 0.1234029 0.1106747 -0.003342 0.000583 -0.000190 -0.2721710 -0.8328464 3.0316848 13.6211022 11.0973171 -49.8529901 19.7474580
1.4066872 0.0875795 0.0976229 -0.003228 0.000496 -0.000076 -0.1163200 -0.5652283 2.9742372 10.1393268 7.8239411 -50.8649845 20.3279489
1.3253061 0.0549399 0.0914074 -0.002894 0.000307 0.000006 0.0122609 -0.3331800 2.8322326 6.9763909 4.9135180 -51.4060393 20.9073424
1.2407725 0.0256950 0.0910096 -0.002488 0.000172 0.000070 0.1095840 -0.1458892 2.6610402 4.1882984 2.2842539 -51.6632573 21.4608890
1.1534137 0.0000003 0.0954321 -0.002017 -0.000005 0.000171 0.1564728 0.0000028 2.1707541 1.7621742 0.0032427 -51.9477774 21.9632696
1.8511777 0.4013085 0.5519881 0.003932 -0.001795 -0.000155 -2.5940959 -5.4695108 0.8283057 37.6684511 37.8671830 -7.1351242 16.9696668
1.8674348 0.3762468 0.4804100 0.003214 -0.001699 -0.000280 -2.0574588 -3.8710813 1.2792113 39.5694510 35.7508663 -14.7855151 16.3692057
1.8681188 0.3451029 0.4091095 0.002323 -0.001596 -0.000647 -1.4871397 -2.5502992 1.3874884 39.9260705 32.9716041 -22.3599076 16.1932600
1.8533005 0.3085620 0.3409131 0.000816 -0.001122 -0.000908 -0.9985095 -1.5874817 1.2777440 38.8765299 29.4221994 -29.5671314 16.0470071
1.8234912 0.2680157 0.2785219 -0.000530 -0.000708 -0.001056 -0.7384358 -1.1048426 1.2514948 36.3280289 25.4395504 -35.9123779 16.3258579
1.7799326 0.2252195 0.2240851 -0.001962 -0.000174 -0.001088 -0.6025642 -0.8601224 1.3423467 32.7721192 21.1842430 -41.2046694 16.6223316
1.7244351 0.1819559 0.1789273 -0.002943 0.000138 -0.001009 -0.5718721 -0.7886157 1.6942477 28.4211142 16.9385712 -45.2451323 17.2751159
1.6590583 0.1397754 0.1435083 -0.003684 0.000363 -0.000854 -0.5004812 -0.6744047 2.0340493 23.8145499 12.8634408 -48.1639023 17.8487266
1.5857981 0.0998568 0.1175746 -0.003860 0.000362 -0.000630 -0.4079328 -0.5427045 2.4123505 19.1577394 9.1052738 -50.0487280 18.6692149
1.5063673 0.0629878 0.1003848 -0.003866 0.000328 -0.000406 -0.2681003 -0.3554703 2.5883606 14.8184009 5.6762957 -51.1630396 19.3019216
1.4220538 0.0296248 0.0909395 -0.003454 0.000118 -0.000202 -0.1294144 -0.1727221 2.7228118 10.7955063 2.6792558 -51.6691757 20.1344530
1.3335786 0.0000004 0.0881554 -0.003099 -0.000002 -0.000038 0.0010231 0.0000033 2.6467917 7.3014486 0.0006070 -51.8044041 20.6929738
1.2407726 -0.0256944 0.0910097 -0.002488 -0.000171 0.000081 0.1091185 0.1452767 2.6497389 4.1881367 -2.2864916 -51.6742806 21.4609805
1.9319301 0.3552877 0.5462238 0.003322 -0.002144 -0.000277 -0.6754639 -1.0138584 0.1897438 46.5070944 34.6205689 -8.1177753 15.1773220
1.9444563 0.3237101 0.4692432 0.002455 -0.002069 -0.000829 0.4900732 0.6476015 -0.2702905 48.2718036 31.7938578 -16.5863485 14.7118815
1.9388417 0.2864995 0.3937686 0.001199 -0.001724 -0.001219 1.2621285 1.4908047 -1.0534837 48.0142120 28.1409978 -24.9318463 14.4984963
1.9156366 0.2449030 0.3231753 -0.000298 -0.001280 -0.001598 1.3932383 1.4845720 -1.6080813 45.7707447 23.9633014 -32.4630929 14.6573999
1.8761871 0.2007462 0.2603313 -0.001827 -0.000702 -0.001748 1.0149618 0.9784401 -1.5639114 41.9282470 19.4384632 -38.8734455 15.0815393
1.8225935 0.1560061 0.2071862 -0.003076 -0.000246 -0.001710 0.4249989 0.3683153 -0.8675278 36.8836444 14.9072860 -43.8288182 15.7692881
1.7573414 0.1124449 0.1646220 -0.003932 0.000101 -0.001492 -0.0536333 -0.0408063 0.1467377 31.3063314 10.5688014 -47.4183937 16.5806648
1.6828743 0.0714026 0.1325825 -0.004289 0.000190 -0.001170 -0.3059539 -0.1914834 1.1578917 25.6062804 6.6144370 -49.7251845 17.4929776
1.6012693 0.0337570 0.1103565 -0.004274 0.000163 -0.000815 -0.3539079 -0.1474949 1.9686676 20.1678306 3.0688125 -51.0366375 18.4043252
1.5140480 0.0000005 0.0968719 -0.003964 -0.000001 -0.000480 -0.2651690 0.0000026 2.4474645 15.2125153 0.0000620 -51.6053376 19.2928723
1.4220538 -0.0296239 0.0909396 -0.003456 -0.000120 -0.000202 -0.1294042 0.1727148 2.7225966 10.7964696 -2.6796776 -51.6692017 20.1331431
1.3253061 -0.0549392 0.0914075 -0.002892 -0.000307 0.000006 0.0122595 0.3331486 2.8319027 6.9753281 -4.9143517 -51.4063555 20.9081102
2.0050130 0.2965764 0.5408760 0.002476 -0.002335 -0.000560 4.1932982 4.4011900 -1.0643101 55.8485914 29.8012999 -9.0483040 13.3000334
2.0112124 0.2585813 0.4593521 0.001442 -0.002076 -0.001175 5.9552112 5.3587399 -2.9991084 57.0208273 26.0712133 -18.3726035 12.7999377
1.9970478 0.2159751 0.3808609 0.000079 -0.001712 -0.001835 6.1584535 4.7632461 -4.7403498 55.5465647 21.7300259 -27.1655096 12.9188110
1.9637224 0.1705992 0.3092023 -0.001500 -0.001052 -0.002200 5.0233969 3.3045264 -5.3989855 51.7771058 16.9893053 -34.8941816 13.2636753
1.9135250 0.1245895 0.2472081 -0.002835 -0.000610 -0.002309 3.1659885 1.7142706 -4.5878126 46.2148629 12.2681579 -41.0669872 14.1207069
1.8493979 0.0799103 0.1964221 -0.003927 -0.000140 -0.002154 1.4890330 0.6112132 -2.8889014 39.7044494 7.7135301 -45.5968020 15.0193125
1.7743503 0.0380601 0.1571637 -0.004409 -0.000043 -0.001762 0.3343992 0.0814304 -0.8801896 32.8525758 3.6320773 -48.5768664 16.2099896
1.6909920 0.0000006 0.1288446 -0.004591 -0.000001 -0.001311 -0.2054484 0.0000006 0.7596945 26.2627215 0.0005047 -50.2820855 17.2253238
1.6012693 -0.0337560 0.1103566 -0.004274 -0.000165 -0.000815 -0.3538998 0.1474953 1.9686222 20.1675023 -3.0690762 -51.0368684 18.4046317
1.5063673 -0.0629869 0.1003849 -0.003866 -0.000328 -0.000407 -0.2681037 0.3554803 2.5883929 14.8180538 -5.6765301 -51.1629305 19.3023976
1.4066873 -0.0875787 0.0976231 -0.003228 -0.000501 -0.000075 -0.1163321 0.5652939 2.9745443 10.1393363 -7.8228425 -50.8650635 20.3286083
2.0663386 0.2246426 0.5362272 0.001490 -0.002177 -0.000774 12.5366278 8.6958942 -2.9525986 64.6639593 23.0434563 -9.8945816 11.4411145
2.0636721 0.1811057 0.4513450 0.000358 -0.001746 -0.001656 13.7512514 7.7148656 -6.4979746 64.5942640 18.5569082 -19.7639434 11.2593013
2.0389437 0.1347118 0.3713416 -0.000975 -0.001215 -0.002290 12.0324058 5.2782125 -8.7844788 61.4810425 13.7243245 -28.8585740 11.6046275
1.9942855 0.0877196 0.3001530 -0.002385 -0.000663 -0.002680 8.4536088 2.6584308 -8.7126599 55.8688719 8.8459157 -36.4483261 12.4503558
1.9329543 0.0422692 0.2402892 -0.003500 -0.000165 -0.002636 4.7053217 0.8222841 -6.6160020 48.6185355 4.1633244 -42.2580119 13.5805165
1.8585542 0.0000007 0.1927170 -0.004197 -0.000000 -0.002300 1.9120193 -0.0000023 -3.6481442 40.6924801 -0.0003063 -46.1959121 14.8858463
1.7743503 -0.0380588 0.1571638 -0.004411 0.000042 -0.001763 0.3343849 -0.0814282 -0.8801520 32.8534063 -3.6321709 -48.5763024 16.2089216
1.6828743 -0.0714014 0.1325827 -0.004287 -0.000188 -0.001170 -0.3059535 0.1914851 1.1578897 25.6057614 -6.6156767 -49.7251806 17.4935149