# volRat = 0.650000
# viscRat = 5.000000
# alpha = 1.000000
# shRate = 2.250000
# tnum = 2200
# time = 2.353000
VARIABLES = X, Y, Z, U, V, W, F_B0, F_B1, F_B2, F_0, F_1, F_2, T
ZONE N=2562 E=5120 F=FEPOINT ET=TRIANGLE
1.6660925 0.4664713 0.6212299 0.003056 -0.001841 -0.000000 3.7579939 16.8323954 0.0000057 24.8653045 53.8187569 0.0001761 20.0476751
-1.6660925 0.4664713 0.6212299 -0.003056 -0.001841 -0.000000 -3.7579822 16.8323991 0.0000063 -24.8652349 53.8187704 0.0000136 20.0476851
1.6660925 -0.4664714 0.6212299 0.003056 0.001841 -0.000000 3.7579840 -16.8324060 0.0000064 24.8651693 -53.8188030 0.0000873 20.0477237
-1.6660925 -0.4664714 0.6212299 -0.003056 0.001841 -0.000000 -3.7579958 -16.8324036 0.0000058 -24.8652283 -53.8187926 0.0000993 20.0477091
0.9960776 0.0000000 1.1323840 -0.004029 -0.000000 0.006731 -0.7600515 -0.0000111 6.8010030 -1.2941274 -0.0000285 49.1786764 22.6923240
0.9960775 -0.0000000 0.1100754 -0.004039 0.000000 -0.006831 -0.7401767 0.0000032 -6.6231755 -1.2751813 0.0015087 -49.0043149 22.6922637
-0.9960775 -0.0000000 1.1323842 0.004052 0.000000 0.006947 0.7234152 0.0000119 6.4731710 1.2584468 0.0001891 48.8577507 22.6922766
-0.9960776 0.0000000 0.1100755 0.004018 -0.000001 -0.006638 0.7731221 -0.0000036 -6.9179813 1.3072482 -0.0014740 -49.2929172 22.6923106
-0.0000000 0.3404120 0.8332292 0.000000 0.006208 0.004166 0.0000299 -108.8491019 -61.2973891 0.0001136 -53.4925577 -26.1388651 25.6854676
-0.0000000 -0.3404120 0.8332292 -0.000001 -0.006215 0.004169 -0.0000041 108.8962310 -61.3235074 0.0003932 53.5388429 -26.1648944 25.6854061
-0.0000000 0.3404117 0.4092308 -0.000000 0.005449 -0.003745 0.0000006 -107.7643533 60.6864899 0.0001172 -52.4362739 25.5563031 25.6843415
-0.0000000 -0.3404117 0.4092307 0.000001 -0.005524 -0.003786 0.0000100 107.9118186 60.7696005 -0.0005378 52.5803337 25.6365263 25.6844825
1.6883989 0.4595544 0.6754542 0.004483 -0.001592 -0.000178 -3.2397503 -13.1919657 -1.2680943 23.4892777 39.0422422 4.7281854 19.8687656
1.7044905 0.4462138 0.7344947 0.004355 -0.001617 -0.000300 -2.3913406 -8.8569707 -1.9470497 25.5124302 40.4250471 11.0537628 19.4330181
1.7115964 0.4266178 0.7959730 0.003982 -0.001535 -0.000442 -2.2587003 -7.7648940 -2.7805040 26.1317865 38.8446860 17.2462423 19.2705204
1.7079162 0.4011233 0.8572253 0.002936 -0.001234 -0.000477 -1.9960915 -6.5097515 -3.3603896 26.1852515 36.7400237 23.4911174 18.9771293
1.6925901 0.3703986 0.9159664 0.001931 -0.000923 -0.000526 -1.7138278 -5.4333114 -3.7991968 25.2607990 33.9174536 29.3686217 19.0048608
1.6655185 0.3354871 0.9701121 0.000630 -0.000514 -0.000595 -1.3618600 -4.3170044 -3.9472854 23.6311562 30.6721479 34.7395968 18.9597590
1.6272570 0.2976799 1.0179870 -0.000516 -0.000182 -0.000670 -1.0280353 -3.3729373 -3.9528527 21.2888720 27.1431784 39.3499185 19.2213767
1.5788585 0.2583519 1.0584571 -0.001628 0.000126 -0.000784 -0.7218839 -2.5678946 -3.8203886 18.5146925 23.4438035 43.1391604 19.4068874
1.5216771 0.2187983 1.0909725 -0.002355 0.000280 -0.000904 -0.4682488 -1.9398764 -3.6604828 15.4209789 19.7974218 46.0705502 19.8762158
1.4571800 0.1801197 1.1155156 -0.002936 0.000386 -0.001041 -0.2556314 -1.4141344 -3.4110528 12.3232251 16.2433355 48.2787190 20.1887522
1.3868058 0.1431666 1.1324831 -0.003136 0.000366 -0.001156 -0.0939077 -1.0354557 -3.2522420 9.2634215 12.9042875 49.7741066 20.7551035
1.3118935 0.1085426 1.1425582 -0.003226 0.000306 -0.001216 0.0332604 -0.7174991 -3.0357665 6.4535016 9.7888135 50.7831056 21.1124365
1.2337095 0.0766481 1.1465939 -0.003114 0.000239 -0.001168 0.1415835 -0.5198450 -3.1495775 3.8973728 6.9090801 51.1438587 21.6746840
1.1535508 0.0477360 1.1455519 -0.002974 0.000075 -0.002069 0.1307622 -0.1821867 -1.7807981 1.6336925 4.4247752 52.6418413 21.9864051
1.0734830 0.0221203 1.1405085 -0.002920 -0.000049 -0.000907 0.5563663 -0.2576219 -5.7285510 -0.1505778 1.9058055 50.5514224 22.5146315
1.7754704 -0.4331245 0.6839758 0.004441 0.001760 -0.000367 -2.7523420 7.8214128 -0.9797580 30.9024344 -39.8731091 6.3411426 18.4807879
1.7920795 -0.4142789 0.7492788 0.004246 0.001849 -0.000147 -2.6589172 6.8179636 -1.8452349 32.5742367 -38.6794402 12.9858897 18.1137268
1.7962761 -0.3893395 0.8154922 0.003506 0.001682 -0.000070 -2.3433778 5.5471856 -2.4352483 33.2562070 -36.5897509 19.9643309 17.7958386
1.7874698 -0.3586502 0.8802088 0.002454 0.001393 0.000000 -1.9569076 4.3633549 -2.7781959 32.7539858 -33.7569909 26.6809298 17.6801934
1.7654401 -0.3231820 0.9409777 0.001073 0.000978 0.000048 -1.5640328 3.3518730 -2.9262210 31.2049794 -30.3402542 32.8926555 17.6827223
1.7306883 -0.2843043 0.9956410 -0.000289 0.000556 0.000004 -1.2196982 2.5677323 -2.9834107 28.6523010 -26.5534781 38.2676335 17.8967631
1.6843546 -0.2435633 1.0426194 -0.001526 0.000160 -0.000129 -0.9286680 1.9694086 -3.0041973 25.4078069 -22.5792653 42.7139792 18.2287201
1.6279973 -0.2024576 1.0810380 -0.002478 -0.000103 -0.000315 -0.6806415 1.5012664 -3.0036988 21.7096296 -18.6291408 46.1265172 18.6929190
1.5633360 -0.1622691 1.1106944 -0.003153 -0.000300 -0.000550 -0.4716965 1.1341826 -3.0116194 17.8667343 -14.7946127 48.6200696 19.2226313
1.4920382 -0.1239802 1.1319245 -0.003435 -0.000289 -0.000770 -0.2854633 0.8155585 -2.9562359 14.0657695 -11.2578866 50.2769394 19.8104221
1.4155801 -0.0882677 1.1454251 -0.003548 -0.000293 -0.000972 -0.1307105 0.5578792 -2.9164418 10.5220927 -7.9512193 51.2956178 20.3845051
1.3351727 -0.0555516 1.1520984 -0.003415 -0.000173 -0.001119 -0.0009749 0.3308491 -2.7873894 7.2816831 -5.0093765 51.8373594 20.9664709
1.2516903 -0.0260624 1.1529202 -0.003252 -0.000119 -0.001309 0.0953373 0.1406835 -2.5374706 4.4269797 -2.3358108 52.1715907 21.5163003
1.1653540 0.0000000 1.1488419 -0.003003 -0.000000 -0.001054 0.2041198 -0.0000001 -2.9306142 1.9735006 0.0000340 51.5384201 22.0136981
1.8586864 -0.3977924 0.6902462 0.004522 0.002180 0.000098 -2.4830594 5.0383836 -0.7674512 38.7682472 -38.1436504 7.2122453 16.9768771
1.8741083 -0.3728178 0.7615601 0.003872 0.002044 0.000168 -1.9053191 3.4593288 -1.1498868 40.6259381 -35.9923386 14.9403776 16.3892822
1.8741253 -0.3419807 0.8325907 0.003021 0.001926 0.000483 -1.3279303 2.2019873 -1.2047997 40.9192741 -33.1843342 22.5754669 16.2281906
1.8588460 -0.3059309 0.9005605 0.001546 0.001458 0.000660 -0.8546538 1.3156650 -1.0644595 39.7875896 -29.6135673 29.8411573 16.0965595
1.8288128 -0.2659995 0.9628196 0.000185 0.001052 0.000709 -0.6307668 0.9144314 -1.0403791 37.1522507 -25.6076921 36.2268326 16.3868789
1.7852794 -0.2238632 1.0172558 -0.001330 0.000514 0.000630 -0.5273299 0.7292138 -1.1418449 33.5186905 -21.3448356 41.5595932 16.6887192
1.7300507 -0.1812215 1.0625576 -0.002423 0.000182 0.000423 -0.5286865 0.7052975 -1.5182226 29.0860743 -17.0847782 45.6355639 17.3459686
1.6651703 -0.1395524 1.0982545 -0.003314 -0.000084 0.000130 -0.4819161 0.6261082 -1.8889052 24.4092441 -12.9950163 48.5762467 17.9188035
1.5926137 -0.0999813 1.1245716 -0.003688 -0.000143 -0.000220 -0.4064931 0.5177184 -2.2973474 19.6877248 -9.2167340 50.4794050 18.7323147
1.5140665 -0.0632655 1.1422122 -0.003902 -0.000180 -0.000563 -0.2755151 0.3441818 -2.4962387 15.2786966 -5.7589755 51.6122838 19.3667146
1.4307779 -0.0298547 1.1521335 -0.003728 -0.000045 -0.000856 -0.1415716 0.1694540 -2.6542047 11.1911604 -2.7263652 52.1207039 20.1924002
1.3434075 -0.0000000 1.1553761 -0.003613 -0.000000 -0.001100 -0.0113545 -0.0000001 -2.5845591 7.6230849 0.0000118 52.2610644 20.7488630
1.2516903 0.0260624 1.1529202 -0.003252 0.000119 -0.001309 0.0953267 -0.1406682 -2.5371908 4.4269465 2.3358025 52.1718677 21.5163033
1.9372174 -0.3514652 0.6959230 0.004104 0.002340 0.000228 -0.3938023 0.5727712 -0.1079225 47.5872564 -34.8187256 8.1984474 15.2145539
1.9489655 -0.3201306 0.7725420 0.003320 0.002237 0.000727 0.7904928 -1.0142876 0.4261997 49.2901575 -31.9616709 16.7412907 14.7662099
1.9428361 -0.2833900 0.8476665 0.002117 0.001892 0.001045 1.5366700 -1.7649507 1.2552584 48.9552406 -28.2837410 25.1536032 14.5687968
1.9194092 -0.2424249 0.9179937 0.000631 0.001477 0.001351 1.6168762 -1.6766744 1.8268171 46.6351217 -24.0897069 32.7373572 14.7384073
1.8800336 -0.1989704 0.9807159 -0.000943 0.000911 0.001399 1.1805488 -1.1077483 1.7794439 42.7143601 -19.5523793 39.1938175 15.1678974
1.8267868 -0.1549055 1.0339124 -0.002290 0.000460 0.001245 0.5364092 -0.4521886 1.0691709 37.6010250 -15.0098824 44.1877885 15.8564203
1.7621180 -0.1119072 1.0766949 -0.003301 0.000088 0.000899 0.0127674 -0.0094318 0.0339967 31.9629969 -10.6550369 47.8097039 16.6604272
1.6884332 -0.0712542 1.1090869 -0.003842 -0.000047 0.000441 -0.2736408 0.1656668 -1.0023554 26.2007571 -6.6814599 50.1477079 17.5701409
1.6077748 -0.0337902 1.1317548 -0.004053 -0.000095 -0.000040 -0.3456244 0.1383114 -1.8432683 20.7022063 -3.1040556 51.4794279 18.4732476
1.5216259 -0.0000000 1.1457223 -0.003979 -0.000000 -0.000492 -0.2709072 -0.0000001 -2.3528929 15.6798191 0.0000295 52.0598266 19.3537539
1.4307779 0.0298547 1.1521335 -0.003728 0.000045 -0.000856 -0.1415714 -0.1694538 -2.6542006 11.1911550 2.7263493 52.1207107 20.1924077
1.3351727 0.0555516 1.1520984 -0.003415 0.000173 -0.001119 -0.0009749 -0.3308506 -2.7874007 7.2816963 5.0093820 51.8373466 20.9664638
2.0081568 -0.2928161 0.7011588 0.003488 0.002367 0.000509 4.5971959 -4.6989641 1.1448114 56.8525214 -29.9291931 9.1294189 13.3792391
2.0137282 -0.2552604 0.7822145 0.002535 0.002104 0.001071 6.3237376 -5.5495515 3.1287138 57.9546800 -26.1777555 18.5253366 12.8999408
1.9992977 -0.2132929 0.8602870 0.001211 0.001763 0.001661 6.4592174 -4.8765076 4.8867942 56.4051466 -21.8179683 27.3804060 13.0305213
1.9660717 -0.1686543 0.9316689 -0.000378 0.001145 0.001937 5.2618269 -3.3797019 5.5565410 52.5701242 -17.0661836 35.1654566 13.3791626
1.9162985 -0.1233664 0.9935845 -0.001811 0.000710 0.001955 3.3477062 -1.7692923 4.7604153 46.9598883 -12.3306807 41.3827941 14.2302206
1.8528566 -0.0792933 1.0444972 -0.003039 0.000238 0.001680 1.6158770 -0.6466564 3.0689934 40.3956380 -7.7611859 45.9531565 15.1204614
1.7786920 -0.0378629 1.0840541 -0.003709 0.000109 0.001162 0.4126407 -0.0977326 1.0590974 33.4973162 -3.6631166 48.9718992 16.2985579
1.6963633 -0.0000000 1.1127898 -0.004119 -0.000000 0.000578 -0.1668252 -0.0000000 -0.5977476 26.8581234 -0.0000048 50.7110509 17.3009046
1.6077748 0.0337902 1.1317548 -0.004053 0.000095 -0.000040 -0.3456244 -0.1383115 -1.8432681 20.7021798 3.1040435 51.4794337 18.4732399
1.5140665 0.0632655 1.1422122 -0.003902 0.000180 -0.000563 -0.2755151 -0.3441820 -2.4962395 15.2787199 5.7589387 51.6122850 19.3667097
1.4155801 0.0882677 1.1454251 -0.003548 0.000293 -0.000972 -0.1307112 -0.5578823 -2.9164574 10.5220757 7.9512506 51.2955960 20.3845068
2.0675587 -0.2214100 0.7056850 0.002742 0.002108 0.000721 12.8810963 -8.7318140 2.9882095 65.5509357 -23.1229521 9.9725497 11.5770415
2.0645246 -0.1785116 0.7900052 0.001674 0.001698 0.001544 14.0101554 -7.6881923 6.5253390 65.4169088 -18.6199575 19.9127393 11.4101614
2.0398764 -0.1328800 0.8695556 0.000344 0.001211 0.002109 12.2438614 -5.2552664 8.8095937 62.2541484 -13.7733015 29.0683244 11.7579266
1.9956995 -0.0866454 0.9404970 -0.001135 0.000695 0.002418 8.6497786 -2.6609251 8.7776944 56.6062977 -8.8809128 36.7149254 12.5931730
1.9351584 -0.0418319 1.0003544 -0.002377 0.000195 0.002270 4.8775948 -0.8331033 6.7400118 49.3271982 -4.1821745 42.5687091 13.7051070
1.8617600 -0.0000000 1.0481361 -0.003253 -0.000000 0.001815 2.0562121 0.0000000 3.8438011 41.3972655 0.0000254 46.5760147 14.9914550
1.7786920 0.0378629 1.0840541 -0.003709 -0.000109 0.001162 0.4126403 0.0977325 1.0590965 33.4973219 3.6631088 48.9718985 16.2985564
1.6884332 0.0712542 1.1090869 -0.003842 0.000047 0.000441 -0.2736406 -0.1656667 -1.0023545 26.2007646 6.6814837 50.1477029 17.5701465
1.5926137 0.0999813 1.1245716 -0.003688 0.000143 -0.000220 -0.4064930 -0.5177183 -2.2973468 19.6877329 9.2167614 50.4793982 18.7323240
1.4920382 0.1239802 1.1319245 -0.003435 0.000289 -0.000770 -0.2854628 -0.8155573 -2.9562311 14.0657475 11.2578983 50.2769444 19.8104243
2.1108688 -0.1384225 0.7090838 0.002017 0.001469 0.000923 22.6334267 -8.7677592 5.0107480 72.3781666 -14.5980514 10.5748448 10.0839450
2.0972227 -0.0920338 0.7951351 0.001048 0.000969 0.001778 21.3990905 -5.6535614 9.6158856 70.5572704 -9.6812097 20.8464800 10.2041662
2.0612014 -0.0451764 0.8745044 -0.000177 0.000446 0.002388 16.3059358 -2.2718099 11.4444243 65.4679219 -4.7159698 29.9402045 11.0580659
2.0058808 -0.0000000 0.9435603 -0.001386 0.000000 0.002539 10.1123292 0.0000001 10.1277446 58.0399594 -0.0000127 37.2909037 12.1797991
1.9351584 0.0418319 1.0003544 -0.002377 -0.000195 0.002270 4.8775937 0.8331032 6.7400104 49.3271725 4.1821672 42.5687242 13.7050902
1.8528566 0.0792933 1.0444972 -0.003039 -0.000238 0.001680 1.6158767 0.6466563 3.0689929 40.3956573 7.7611456 45.9531534 15.1204649
1.7621180 0.1119072 1.0766949 -0.003301 -0.000088 0.000899 0.0127671 0.0094316 0.0339960 31.9629747 10.6550535 47.8097055 16.6604263
1.6651703 0.1395524 1.0982545 -0.003314 0.000084 0.000130 -0.4819161 -0.6261083 -1.8889055 24.4092498 12.9949747 48.5762585 17.9187907
1.5633360 0.1622691 1.1106944 -0.003153 0.000300 -0.000550 -0.4716966 -1.1341829 -3.0116199 17.8667361 14.7946033 48.6200727 19.2226254
2.1338406 -0.0471513 0.7109228 0.001577 0.000521 0.001028 29.5096871 -3.7194706 6.3830889 76.0897006 -4.9750245 10.8808617 9.2314840
2.1085427 -0.0000000 0.7969335 0.000783 -0.000000 0.001920 24.4159654 0.0000003 10.8419467 72.3443287 0.0000186 21.1322189 9.8614077
2.0612014 0.0451764 0.8745044 -0.000177 -0.000446 0.002388 16.3059348 2.2718101 11.4444237 65.4679290 4.7159675 29.9401991 11.0580596
1.9956995 0.0866454 0.9404970 -0.001135 -0.000695 0.002418 8.6497778 2.6609251 8.7776937 56.6062990 8.8809451 36.7149141 12.5931878
1.9162985 0.1233664 0.9935845 -0.001811 -0.000711 0.001955 3.3477063 1.7692925 4.7604155 46.9598988 12.3306972 41.3827827 14.2302295
1.8267868 0.1549055 1.0339124 -0.002290 -0.000461 0.001245 0.5364093 0.4521887 1.0691710 37.6010043 15.0099062 44.1877914 15.8564172
1.7300507 0.1812214 1.0625576 -0.002423 -0.000182 0.000423 -0.5286867 -0.7052977 -1.5182231 29.0861049 17.0847762 45.6355527 17.3459744
1.6279973 0.2024576 1.0810380 -0.002477 0.000103 -0.000315 -0.6806416 -1.5012665 -3.0036989 21.7096007 18.6291898 46.1265005 18.6929378
2.1338406 0.0471513 0.7109228 0.001577 -0.000521 0.001028 29.5096862 3.7194714 6.3830887 76.0896905 4.9750229 10.8808843 9.2314578
2.0972227 0.0920337 0.7951351 0.001048 -0.000969 0.001778 21.3990906 5.6535620 9.6158857 70.5572816 9.6811778 20.8464725 10.2041778
2.0398764 0.1328800 0.8695556 0.000344 -0.001211 0.002109 12.2438620 5.2552669 8.8095941 62.2541332 13.7733061 29.0683396 11.7579209
1.9660717 0.1686542 0.9316688 -0.000378 -0.001145 0.001937 5.2618255 3.3797012 5.5565396 52.5701318 17.0661409 35.1654699 13.3791418
1.8800336 0.1989703 0.9807159 -0.000943 -0.000911 0.001399 1.1805488 1.1077483 1.7794439 42.7143594 19.5523738 39.1938205 15.1678993
1.7852794 0.2238632 1.0172558 -0.001330 -0.000514 0.000630 -0.5273308 -0.7292151 -1.1418469 33.5186992 21.3448180 41.5595938 16.6887163
1.6843546 0.2435633 1.0426194 -0.001526 -0.000160 -0.000129 -0.9286682 -1.9694090 -3.0041978 25.4077841 22.5792521 42.7139970 18.2287077
2.1108688 0.1384224 0.7090838 0.002017 -0.001469 0.000923 22.6334271 8.7677601 5.0107482 72.3781744 14.5980562 10.5748342 10.0839560
2.0645245 0.1785116 0.7900052 0.001674 -0.001698 0.001544 14.0101527 7.6881912 6.5253378 65.4168919 18.6199846 19.9127440 11.4101519
1.9992977 0.2132928 0.8602870 0.001211 -0.001763 0.001661 6.4592162 4.8765068 4.8867932 56.4051651 21.8179736 27.3803784 13.0305414
1.9194092 0.2424249 0.9179937 0.000631 -0.001477 0.001351 1.6168776 1.6766758 1.8268185 46.6350925 24.0897516 32.7373516 14.7384241
1.8288128 0.2659995 0.9628196 0.000185 -0.001052 0.000709 -0.6307665 -0.9144310 -1.0403786 37.1522603 25.6076877 36.2268317 16.3868695
1.7306883 0.2843043 0.9956410 -0.000289 -0.000557 0.000004 -1.2196981 -2.5677321 -2.9834104 28.6522954 26.5535036 38.2676200 17.8967797
2.0675587 0.2214100 0.7056850 0.002742 -0.002108 0.000721 12.8810929 8.7318122 2.9882087 65.5509268 23.1229515 9.9725481 11.5770477
2.0137282 0.2552604 0.7822145 0.002535 -0.002104 0.001071 6.3237367 5.5495509 3.1287134 57.9546922 26.1777276 18.5253502 12.8999337
1.9428361 0.2833900 0.8476665 0.002117 -0.001892 0.001045 1.5366689 1.7649494 1.2552574 48.9552303 28.2837282 25.1536277 14.5687723
1.8588460 0.3059309 0.9005605 0.001545 -0.001458 0.000660 -0.8546536 -1.3156647 -1.0644592 39.7876315 29.6135348 29.8411583 16.0965528
1.7654401 0.3231820 0.9409777 0.001073 -0.000978 0.000048 -1.5640324 -3.3518723 -2.9262203 31.2049478 30.3402684 32.8926599 17.6827298
2.0081568 0.2928161 0.7011588 0.003488 -0.002367 0.000509 4.5971971 4.6989655 1.1448117 56.8525357 29.9291924 9.1294121 13.3792327
1.9489655 0.3201306 0.7725420 0.003320 -0.002237 0.000727 0.7904950 1.0142904 0.4262009 49.2901372 31.9617093 16.7412671 14.7662380
1.8741253 0.3419807 0.8325907 0.003021 -0.001926 0.000483 -1.3279298 -2.2019864 -1.2047992 40.9192680 33.1843497 22.5754493 16.2282061
1.7874698 0.3586502 0.8802088 0.002454 -0.001393 0.000000 -1.9569080 -4.3633559 -2.7781964 32.7539528 33.7570074 26.6809385 17.6801963
1.9372173 0.3514652 0.6959230 0.004105 -0.002340 0.000228 -0.3938028 -0.5727720 -0.1079226 47.5872347 34.8187296 8.1984688 15.2145450
1.8741083 0.3728178 0.7615601 0.003872 -0.002044 0.000168 -1.9053207 -3.4593319 -1.1498878 40.6259810 35.9922928 14.9404138 16.3892442
1.7962761 0.3893395 0.8154922 0.003506 -0.001682 -0.000070 -2.3433782 -5.5471868 -2.4352488 33.2562110 36.5897535 19.9643189 17.7958386
1.8586864 0.3977924 0.6902462 0.004522 -0.002180 0.000098 -2.4830589 -5.0383827 -0.7674510 38.7682684 38.1436565 7.2121864 16.9769081
1.7920795 0.4142788 0.7492788 0.004246 -0.001849 -0.000147 -2.6589172 -6.8179638 -1.8452350 32.5741616 38.6794763 12.9858948 18.1137620
1.7754704 0.4331245 0.6839758 0.004441 -0.001760 -0.000367 -2.7523418 -7.8214126 -0.9797579 30.9024138 39.8731092 6.3411572 18.4807484
1.7454388 0.4467458 0.6212298 0.004169 -0.001713 -0.000000 -2.9705098 -9.7402390 -0.0000014 28.3258090 40.7299321 0.0001391 19.0844254
1.8270350 0.4172651 0.6212298 0.004498 -0.002006 -0.000000 -2.6755330 -6.2475936 -0.0000009 35.5996123 39.4021900 -0.0000038 17.5182892
1.9073320 0.3771110 0.6212298 0.004324 -0.002241 -0.000000 -1.6177515 -2.7293078 -0.0000004 44.0311910 36.8432456 0.0000683 15.9875044
1.9824398 0.3249322 0.6212298 0.003954 -0.002409 -0.000000 2.0443900 2.4641414 0.0000003 53.2324362 32.8218438 0.0000444 14.0751628
2.0484390 0.2598361 0.6212298 0.003280 -0.002270 -0.000000 9.1871863 7.6222349 0.0000010 62.5543000 26.9437565 -0.0000103 12.2691383
2.1007569 0.1821328 0.6212298 0.002569 -0.001834 -0.000000 19.3257922 10.0633336 0.0000015 70.6657509 19.1829254 0.0000440 10.4779575
2.1346740 0.0940453 0.6212298 0.002000 -0.001045 -0.000000 28.8436877 7.2450994 0.0000018 76.1312773 9.9433832 0.0000164 9.3156978
2.1464605 -0.0000000 0.6212298 0.001775 0.000000 -0.000000 32.9113619 0.0000006 0.0000018 78.0653030 -0.0000146 -0.0000026 8.7778065
2.1346740 -0.0940453 0.6212298 0.002000 0.001044 -0.000000 28.8436927 -7.2450997 0.0000017 76.1312885 -9.9433514 0.0000282 9.3156771
2.1007569 -0.1821328 0.6212298 0.002569 0.001834 -0.000000 19.3257913 -10.0633324 0.0000015 70.6657338 -19.1829561 0.0000313 10.4779810
2.0484391 -0.2598361 0.6212298 0.003280 0.002270 -0.000000 9.1871873 -7.6222353 0.0000010 62.5543245 -26.9437216 -0.0000170 12.2691303
1.9824398 -0.3249322 0.6212298 0.003954 0.002409 -0.000000 2.0443918 -2.4641435 0.0000003 53.2324097 -32.8218741 0.0000559 14.0751543
1.9073320 -0.3771110 0.6212298 0.004324 0.002241 -0.000000 -1.6177509 2.7293069 -0.0000004 44.0312295 -36.8432174 0.0000527 15.9875131
1.8270351 -0.4172651 0.6212298 0.004498 0.002006 0.000000 -2.6755331 6.2475938 -0.0000009 35.5995552 -39.4022205 -0.0000548 17.5183045
1.7454389 -0.4467458 0.6212298 0.004169 0.001713 -0.000000 -2.9705099 9.7402392 -0.0000014 28.3258935 -40.7298979 0.0001632 19.0843838
1.6883989 -0.4595544 0.5670055 0.004484 0.001592 0.000179 -3.2397499 13.1919637 1.2680901 23.4892004 -39.0422304 -4.7285490 19.8688079
1.7044905 -0.4462139 0.5079650 0.004355 0.001617 0.000299 -2.3913414 8.8569740 1.9470477 25.5125258 -40.4250608 -11.0535456 19.4329422
1.7115964 -0.4266179 0.4464867 0.003982 0.001535 0.000442 -2.2587001 7.7648939 2.7805016 26.1318383 -38.8446143 -17.2464019 19.2705382
1.7079162 -0.4011234 0.3852344 0.002936 0.001234 0.000477 -1.9960931 6.5097573 3.3603905 26.1851605 -36.7400425 -23.4910708 18.9771368
1.6925901 -0.3703987 0.3264932 0.001931 0.000922 0.000526 -1.7138275 5.4333112 3.7991948 25.2609522 -33.9173410 -29.3687069 19.0048031
1.6655185 -0.3354872 0.2723476 0.000630 0.000514 0.000595 -1.3618620 4.3170113 3.9472900 23.6311701 -30.6721735 -34.7395091 18.9596556
1.6272570 -0.2976800 0.2244726 -0.000516 0.000182 0.000669 -1.0280353 3.3729378 3.9528518 21.2888314 -27.1430719 -39.3500094 19.2215159
1.5788585 -0.2583519 0.1840025 -0.001628 -0.000127 0.000783 -0.7218852 2.5678997 3.8203949 18.5147961 -23.4437801 -43.1391036 19.4066510
1.5216772 -0.2187984 0.1514871 -0.002355 -0.000280 0.000903 -0.4682487 1.9398762 3.6604812 15.4210528 -19.7973723 -46.0705703 19.8762644
1.4571800 -0.1801198 0.1269439 -0.002936 -0.000386 0.001041 -0.2556309 1.4141320 3.4110462 12.3231001 -16.2433110 -48.2787075 20.1887294
1.3868058 -0.1431666 0.1099764 -0.003136 -0.000366 0.001155 -0.0939122 1.0355055 3.2523978 9.2635923 -12.9041515 -49.7739736 20.7550674
1.3118935 -0.1085426 0.0999014 -0.003226 -0.000306 0.001216 0.0332529 0.7173396 3.0350910 6.4534573 -9.7889910 -50.7837380 21.1121905
1.2337095 -0.0766482 0.0958656 -0.003113 -0.000240 0.001168 0.1415617 0.5197649 3.1490927 3.8972370 -6.9091062 -51.1443248 21.6750309
1.1535508 -0.0477360 0.0969077 -0.002974 -0.000077 0.002058 0.1320399 0.1839671 1.7981980 1.6348661 -4.4227868 -52.6247533 21.9859287
1.0734830 -0.0221203 0.1019511 -0.002916 0.000051 0.000948 0.5486238 0.2540357 5.6488324 -0.1579548 -1.9101095 -50.6297136 22.5147009
1.7754704 0.4331245 0.5584839 0.004441 -0.001760 0.000367 -2.7523413 -7.8214116 0.9797555 30.9023909 39.8731380 -6.3411608 18.4807769
1.7920795 0.4142789 0.4931809 0.004246 -0.001849 0.000147 -2.6589176 -6.8179653 1.8452333 32.5741038 38.6795065 -12.9858872 18.1137932
1.7962761 0.3893395 0.4269675 0.003506 -0.001682 0.000070 -2.3433775 -5.5471858 2.4352466 33.2561715 36.5898248 -19.9642687 17.7958834
1.7874698 0.3586502 0.3622509 0.002454 -0.001393 -0.000001 -1.9569078 -4.3633561 2.7781950 32.7539832 33.7570574 -26.6808732 17.6801804
1.7654401 0.3231820 0.3014819 0.001074 -0.000979 -0.000049 -1.5640321 -3.3518721 2.9262187 31.2047984 30.3403639 -32.8926862 17.6828654
1.7306884 0.2843044 0.2468186 -0.000289 -0.000557 -0.000005 -1.2196977 -2.5677319 2.9834089 28.6523373 26.5535332 -38.2675991 17.8967825
1.6843546 0.2435634 0.1998402 -0.001526 -0.000160 0.000129 -0.9286673 -1.9694075 3.0041943 25.4077678 22.5793807 -42.7139718 18.2287251
1.6279973 0.2024577 0.1614215 -0.002477 0.000103 0.000315 -0.6806411 -1.5012658 3.0036962 21.7095080 18.6292114 -46.1265265 18.6930933
1.5633360 0.1622691 0.1317651 -0.003153 0.000300 0.000549 -0.4716960 -1.1341816 3.0116153 17.8667382 14.7946700 -48.6200890 19.2226456
1.4920382 0.1239802 0.1105351 -0.003435 0.000289 0.000769 -0.2854621 -0.8155554 2.9562232 14.0658215 11.2579622 -50.2769369 19.8104137
1.4155801 0.0882677 0.0970345 -0.003548 0.000293 0.000972 -0.1307098 -0.5578763 2.9164253 10.5219492 7.9512987 -51.2956580 20.3847215
1.3351727 0.0555517 0.0903611 -0.003415 0.000173 0.001118 -0.0009750 -0.3308925 2.7877525 7.2817852 5.0092626 -51.8370102 20.9665194
1.2516903 0.0260624 0.0895394 -0.003252 0.000119 0.001311 0.0952788 -0.1405977 2.5359174 4.4270919 2.3360236 -52.1731552 21.5162348
1.1653540 -0.0000000 0.0936177 -0.003002 -0.000000 0.001063 0.2036894 -0.0000002 2.9244372 1.9729779 -0.0002266 -51.5444572 22.0141336
1.8586864 0.3977924 0.5522135 0.004522 -0.002180 -0.000098 -2.4830605 -5.0383861 0.7674501 38.7683182 38.1436042 -7.2122480 16.9768811
1.8741083 0.3728178 0.4808996 0.003872 -0.002044 -0.000168 -1.9053218 -3.4593341 1.1498875 40.6260317 35.9922909 -14.9402835 16.3892013
1.8741253 0.3419808 0.4098690 0.003021 -0.001926 -0.000483 -1.3279316 -2.2019896 1.2048003 40.9192518 33.1842488 -22.5756100 16.2282175
1.8588460 0.3059310 0.3418991 0.001545 -0.001458 -0.000661 -0.8546560 -1.3156686 1.0644619 39.7876934 29.6135363 -29.8410484 16.0964852
1.8288129 0.2659996 0.2796400 0.000185 -0.001052 -0.000709 -0.6307671 -0.9144320 1.0403793 37.1523165 25.6075764 -36.2268775 16.3868078
1.7852795 0.2238632 0.2252038 -0.001330 -0.000514 -0.000631 -0.5273335 -0.7292190 1.1418525 33.5186639 21.3448231 -41.5595536 16.6887136
1.7300507 0.1812215 0.1799019 -0.002423 -0.000182 -0.000423 -0.5286872 -0.7052986 1.5182243 29.0861456 17.0846416 -45.6355865 17.3459228
1.6651703 0.1395525 0.1442051 -0.003314 0.000083 -0.000130 -0.4819179 -0.6261108 1.8889122 24.4093363 12.9950183 -48.5761773 17.9186307
1.5926137 0.0999813 0.1178879 -0.003688 0.000143 0.000220 -0.4064934 -0.5177190 2.2973492 19.6876340 9.2166423 -50.4794355 18.7324221
1.5140665 0.0632655 0.1002473 -0.003901 0.000180 0.000562 -0.2755163 -0.3441836 2.4962498 15.2787623 5.7589291 -51.6122321 19.3665424
1.4307779 0.0298547 0.0903260 -0.003728 0.000045 0.000856 -0.1415715 -0.1694541 2.6542039 11.1912149 2.7263515 -52.1207114 20.1922844
1.3434075 -0.0000000 0.0870834 -0.003612 -0.000000 0.001100 -0.0113537 -0.0000001 2.5843730 7.6228958 0.0000191 -52.2612047 20.7488639
1.2516903 -0.0260624 0.0895394 -0.003251 -0.000119 0.001308 0.0953731 0.1407366 2.5384238 4.4269656 -2.3358123 -52.1706831 21.5162111
1.9372173 0.3514652 0.5465367 0.004105 -0.002340 -0.000228 -0.3938024 -0.5727713 0.1079223 47.5871612 34.8187814 -8.1985669 15.2145863
1.9489655 0.3201307 0.4699176 0.003320 -0.002237 -0.000727 0.7904941 1.0142893 -0.4262001 49.2901461 31.9617388 -16.7411958 14.7662417
1.9428361 0.2833900 0.3947932 0.002117 -0.001892 -0.001046 1.5366709 1.7649520 -1.2552586 48.9552068 28.2838157 -25.1535894 14.5687921
1.9194092 0.2424250 0.3244659 0.000631 -0.001478 -0.001351 1.6168781 1.6766766 -1.8268187 46.6350432 24.0897744 -32.7373934 14.7384908
1.8800337 0.1989704 0.2617437 -0.000943 -0.000911 -0.001399 1.1805495 1.1077492 -1.7794447 42.7143493 19.5524732 -39.1937996 15.1679290
1.8267868 0.1549055 0.2085471 -0.002290 -0.000461 -0.001245 0.5364111 0.4521903 -1.0691744 37.6010435 15.0099318 -44.1877805 15.8564110
1.7621180 0.1119073 0.1657647 -0.003301 -0.000088 -0.000900 0.0127685 0.0094326 -0.0339996 31.9628828 10.6551480 -47.8097455 16.6605593
1.6884332 0.0712542 0.1333726 -0.003842 0.000047 -0.000441 -0.2736395 -0.1656661 1.0023505 26.2007830 6.6814656 -50.1477109 17.5701707
1.6077748 0.0337902 0.1107048 -0.004053 0.000095 0.000040 -0.3456237 -0.1383112 1.8432643 20.7022457 3.1041710 -51.4794407 18.4732191
1.5216259 -0.0000000 0.0967372 -0.003979 -0.000000 0.000492 -0.2709065 -0.0000001 2.3528868 15.6797227 -0.0000273 -52.0598412 19.3539631
1.4307779 -0.0298547 0.0903260 -0.003728 -0.000045 0.000856 -0.1415723 0.1694548 2.6542172 11.1912031 -2.7263386 -52.1207124 20.1924407
1.3351727 -0.0555517 0.0903611 -0.003415 -0.000173 0.001118 -0.0009750 0.3308792 2.7876413 7.2818776 -5.0093727 -51.8370971 20.9664499
2.0081568 0.2928161 0.5413009 0.003488 -0.002367 -0.000509 4.5971972 4.6989658 -1.1448105 56.8525897 29.9291243 -9.1294187 13.3792067
2.0137282 0.2552604 0.4602451 0.002535 -0.002104 -0.001071 6.3237343 5.5495492 -3.1287107 57.9546818 26.1777142 -18.5253448 12.8999281
1.9992977 0.2132929 0.3821726 0.001211 -0.001762 -0.001661 6.4592162 4.8765074 -4.8867918 56.4051940 21.8178843 -27.3804081 13.0305149
1.9660717 0.1686543 0.3107907 -0.000378 -0.001145 -0.001938 5.2618245 3.3797010 -5.5565373 52.5701894 17.0661450 -35.1653751 13.3790661
1.9162985 0.1233664 0.2488751 -0.001811 -0.000710 -0.001955 3.3477072 1.7692933 -4.7604159 46.9598350 12.3305876 -41.3828598 14.2302664
1.8528566 0.0792933 0.1979624 -0.003039 -0.000238 -0.001680 1.6158748 0.6466557 -3.0689887 40.3957169 7.7611543 -45.9530794 15.1203727
1.7786921 0.0378629 0.1584055 -0.003708 -0.000109 -0.001162 0.4126410 0.0977327 -1.0590980 33.4973488 3.6630249 -48.9718980 16.2984879
1.6963634 -0.0000000 0.1296697 -0.004119 -0.000000 -0.000579 -0.1668271 -0.0000000 0.5977544 26.8580855 -0.0000031 -50.7110189 17.3009014
1.6077748 -0.0337902 0.1107048 -0.004052 -0.000095 0.000040 -0.3456243 0.1383114 1.8432673 20.7021756 -3.1041516 -51.4794396 18.4732064
1.5140665 -0.0632655 0.1002473 -0.003902 -0.000180 0.000562 -0.2755158 0.3441828 2.4962454 15.2788158 -5.7588963 -51.6122392 19.3664700
1.4155801 -0.0882677 0.0970345 -0.003547 -0.000293 0.000972 -0.1307077 0.5578674 2.9163794 10.5218804 -7.9512825 -51.2956997 20.3846386
2.0675587 0.2214100 0.5367746 0.002742 -0.002108 -0.000722 12.8810965 8.7318150 -2.9882071 65.5508922 23.1230316 -9.9725472 11.5770669
2.0645246 0.1785116 0.4524544 0.001674 -0.001698 -0.001544 14.0101514 7.6881912 -6.5253347 65.4169117 18.6200024 -19.9126900 11.4101527
2.0398765 0.1328800 0.3729040 0.000345 -0.001211 -0.002109 12.2438637 5.2552683 -8.8095933 62.2540778 13.7733886 -29.0683944 11.7579774
1.9956996 0.0866454 0.3019626 -0.001135 -0.000696 -0.002418 8.6497810 2.6609265 -8.7776954 56.6063199 8.8809566 -36.7149056 12.5932034
1.9351585 0.0418319 0.2421052 -0.002377 -0.000195 -0.002270 4.8775965 0.8331039 -6.7400132 49.3272089 4.1822668 -42.5687097 13.7050878
1.8617601 -0.0000000 0.1943234 -0.003253 -0.000000 -0.001815 2.0562150 0.0000001 -3.8438060 41.3971973 0.0000040 -46.5760643 14.9915644
1.7786921 -0.0378629 0.1584055 -0.003708 0.000108 -0.001162 0.4126422 -0.0977330 -1.0591012 33.4973409 -3.6630250 -48.9719186 16.2985772
1.6884332 -0.0712542 0.1333726 -0.003842 -0.000047 -0.000441 -0.2736398 0.1656663 1.0023517 26.2008223 -6.6814663 -50.1476960 17.5701287