# volRat = 0.650000
# viscRat = 5.000000
# alpha = 1.000000
# shRate = 2.250000
# tnum = 7500
# time = 8.006333
VARIABLES = X, Y, Z, U, V, W, F_B0, F_B1, F_B2, F_0, F_1, F_2, T
ZONE N=2562 E=5120 F=FEPOINT ET=TRIANGLE
1.6563747 0.4678677 0.6212291 0.002985 -0.000563 -0.000002 3.0932378 14.6177321 0.0000265 23.5205146 51.3805629 0.0002014 20.0325329
-1.6563747 0.4678677 0.6212291 -0.002985 -0.000563 -0.000002 -3.0932277 14.6177331 0.0000271 -23.5205060 51.3805637 0.0002019 20.0325332
1.6563747 -0.4678668 0.6212291 0.002978 0.000563 -0.000001 3.0932940 -14.6180525 0.0000270 23.5229108 -51.3809870 -0.0002378 20.0346996
-1.6563747 -0.4678668 0.6212291 -0.002978 0.000564 -0.000001 -3.0933048 -14.6180546 0.0000265 -23.5229205 -51.3809891 -0.0002380 20.0346998
0.9834832 0.0000001 1.1302957 -0.001768 0.000009 0.000130 -1.8691281 -0.0000292 16.7575691 -2.4070800 -0.0035124 58.8484279 22.6255625
0.9834828 0.0000001 0.1121611 -0.001735 0.000011 0.000695 -2.0251591 0.0000172 -18.1565872 -2.5246251 -0.0017239 -60.2208731 22.6247453
-0.9834832 0.0000001 1.1302957 0.001768 0.000009 0.000130 1.8691058 0.0000247 16.7573690 2.4070581 -0.0034816 58.8482323 22.6255627
-0.9834828 0.0000001 0.1121611 0.001735 0.000011 0.000690 2.0244257 0.0000299 -18.1500112 2.5238991 -0.0017177 -60.2144501 22.6247492
-0.0000000 0.3400485 0.8371948 -0.000000 0.002552 0.002068 0.0000244 -87.7072596 -50.3250257 0.0000229 -34.5187257 -15.7441027 25.6193329
-0.0000000 -0.3400470 0.8371940 0.000000 -0.001393 0.001330 0.0000028 80.4671811 -46.1662204 0.0000025 27.3856171 -11.6471719 25.6475364
-0.0000000 0.3400480 0.4052648 0.000000 -0.000842 -0.000214 0.0000003 -83.1420953 47.7063053 -0.0000037 -30.0948972 13.2594508 25.5837916
-0.0000000 -0.3400471 0.4052653 0.000000 0.001026 -0.000008 0.0000027 77.1434943 44.2599541 -0.0000016 24.1641175 9.8347065 25.6210008
1.6791736 0.4611060 0.6755923 0.004224 -0.000894 -0.000139 -3.0095871 -12.8839653 -1.2368769 22.8135689 39.1264865 4.7268744 19.8531214
1.6958000 0.4478216 0.7347824 0.004043 -0.000918 -0.000182 -2.3354167 -9.0627894 -1.9895003 24.6957580 40.0313277 10.9536723 19.4105256
1.7034337 0.4281567 0.7964071 0.003656 -0.000845 -0.000242 -2.2149391 -7.9567524 -2.8451844 25.3336563 38.4856979 17.0945513 19.2452918
1.7002276 0.4024622 0.8577830 0.002598 -0.000567 -0.000202 -1.9671744 -6.6912970 -3.4498628 25.4184987 36.3934652 23.2891064 18.9411521
1.6852808 0.3714188 0.9166030 0.001596 -0.000278 -0.000154 -1.6880255 -5.5760618 -3.8958180 24.5532520 33.6017319 29.1272008 18.9612755
1.6584580 0.3360994 0.9707597 0.000340 0.000107 -0.000113 -1.3408760 -4.4293170 -4.0492982 22.9814415 30.3712670 34.4586839 18.9063609
1.6202872 0.2978388 1.0185596 -0.000731 0.000408 -0.000069 -1.0076344 -3.4509400 -4.0472218 20.7033955 26.8588283 39.0388408 19.1645975
1.5718029 0.2580634 1.0588597 -0.001748 0.000678 -0.000056 -0.7021923 -2.6187173 -3.9033084 17.9988040 23.1727149 42.8002446 19.3400800
1.5143501 0.2181201 1.0911134 -0.002329 0.000769 -0.000053 -0.4489963 -1.9691690 -3.7278529 14.9670021 19.5468219 45.7095112 19.8119474
1.4493957 0.1791538 1.1153174 -0.002745 0.000810 -0.000080 -0.2384330 -1.4307653 -3.4678696 11.9330769 16.0120455 47.8961891 20.1210016
1.3783889 0.1420470 1.1318929 -0.002751 0.000712 -0.000102 -0.0787135 -1.0459249 -3.3067232 8.9367661 12.6960660 49.3722670 20.6904663
1.3026934 0.1074188 1.1415549 -0.002636 0.000562 -0.000121 0.0460518 -0.7200380 -3.0720245 6.1911669 9.6197512 50.3831116 21.0450344
1.2236188 0.0756665 1.1451943 -0.002295 0.000391 -0.000126 0.1455575 -0.4958474 -3.0347223 3.6902343 6.7987336 50.8960733 21.6180712
1.1425288 0.0470206 1.1438130 -0.002014 0.000249 -0.000129 0.2228867 -0.2989963 -2.9566359 1.5908063 4.2127229 51.1225891 21.9178391
1.0615923 0.0217523 1.1385277 -0.001639 0.000010 -0.000134 0.5399808 -0.2449616 -5.5136470 -0.2380567 1.8957454 50.4341144 22.4592120
1.7680052 -0.4352899 0.6841512 0.004028 0.001232 -0.000299 -2.7072084 7.9992481 -0.9996759 30.0581773 -39.6286424 6.2915708 18.4595306
1.7852054 -0.4164561 0.7496454 0.003786 0.001320 -0.000024 -2.6742239 7.1106362 -1.9194747 31.6955384 -38.3381830 12.8669357 18.0845530
1.7899086 -0.3913732 0.8160468 0.002999 0.001176 0.000128 -2.3734866 5.8146661 -2.5461303 32.4126709 -36.2826254 19.7860825 17.7588545
1.7814928 -0.3603944 0.8809199 0.001932 0.000899 0.000272 -1.9914574 4.5894615 -2.9154581 31.9605174 -33.4750305 26.4547024 17.6336901
1.7597029 -0.3245193 0.9417815 0.000568 0.000496 0.000414 -1.5935399 3.5276760 -3.0742073 30.4699640 -30.0811885 32.6220180 17.6284046
1.7250154 -0.2851647 0.9964452 -0.000750 0.000081 0.000482 -1.2386665 2.6944380 -3.1274088 27.9840764 -26.3102196 37.9590020 17.8336121
1.6785569 -0.2439344 1.0433150 -0.001898 -0.000286 0.000476 -0.9363518 2.0550148 -3.1347151 24.8033060 -22.3553660 42.3699895 18.1629628
1.6218824 -0.2023861 1.0815151 -0.002720 -0.000517 0.000418 -0.6786435 1.5547577 -3.1145773 21.1674377 -18.4203610 45.7548546 18.6250793
1.5567156 -0.1618527 1.1108566 -0.003238 -0.000654 0.000310 -0.4630934 1.1653889 -3.1029761 17.3882799 -14.6094792 48.2234335 19.1552638
1.4847350 -0.1233541 1.1317004 -0.003333 -0.000578 0.000206 -0.2735657 0.8322593 -3.0302464 13.6490066 -11.0962624 49.8602022 19.7439620
1.4074380 -0.0875872 1.1447755 -0.003229 -0.000496 0.000090 -0.1175835 0.5654855 -2.9749657 10.1646647 -7.8254707 50.8693535 20.3245956
1.3260723 -0.0549731 1.1510207 -0.002892 -0.000313 0.000004 0.0112420 0.3332210 -2.8306580 6.9955812 -4.9138920 51.4115718 20.9045169
1.2415732 -0.0257240 1.1514508 -0.002489 -0.000168 -0.000065 0.1085413 0.1457887 -2.6561092 4.2059879 -2.2902732 51.6717105 21.4594412
1.1542549 0.0000001 1.1470589 -0.002023 -0.000004 -0.000133 0.1599776 0.0000018 -2.2280076 1.7830386 0.0023184 51.8926295 21.9568557
1.8529842 -0.4004333 0.6904730 0.003931 0.001792 0.000162 -2.5765368 5.3940708 -0.8187717 37.8468516 -37.8427677 7.1474002 16.9399640
1.8690145 -0.3753931 0.7620410 0.003215 0.001696 0.000295 -2.0312305 3.7971994 -1.2576707 39.7329181 -35.7220967 14.8069703 16.3426408
1.8694783 -0.3443101 0.8333181 0.002326 0.001597 0.000666 -1.4596893 2.4886169 -1.3569255 40.0681202 -32.9408790 22.3873733 16.1705147
1.8544589 -0.3078646 0.9014827 0.000824 0.001127 0.000931 -0.9748645 1.5416648 -1.2434531 38.9938028 -29.3927037 29.5962284 16.0290261
1.8244785 -0.2674393 0.9638418 -0.000505 0.000719 0.001074 -0.7237180 1.0775907 -1.2229548 36.4197987 -25.4086365 35.9385150 16.3135462
1.7807853 -0.2247773 1.0182533 -0.001951 0.000182 0.001112 -0.5934600 0.8433871 -1.3184447 32.8449631 -21.1624773 41.2270156 16.6117062
1.7251921 -0.1816469 1.0633981 -0.002931 -0.000131 0.001030 -0.5666713 0.7782570 -1.6743509 28.4733123 -16.9210503 45.2705342 17.2689137
1.6597571 -0.1395858 1.0988180 -0.003670 -0.000354 0.000874 -0.4996586 0.6706872 -2.0250325 23.8554699 -12.8544945 48.1762508 17.8431958
1.5864732 -0.0997624 1.1247659 -0.003847 -0.000357 0.000646 -0.4084141 0.5412038 -2.4073841 19.1888631 -9.1009385 50.0590574 18.6633852
1.5070482 -0.0629580 1.1419803 -0.003861 -0.000327 0.000423 -0.2690341 0.3550386 -2.5859469 14.8450200 -5.6755888 51.1702161 19.2978475
1.4227639 -0.0296258 1.1514566 -0.003451 -0.000113 0.000216 -0.1304677 0.1727149 -2.7221730 10.8177269 -2.6822368 51.6746896 20.1302446
1.3343327 0.0000001 1.1542739 -0.003106 0.000002 0.000052 0.0000833 0.0000020 -2.6476779 7.3247359 -0.0017300 51.8071936 20.6866070
1.2415731 0.0257242 1.1514509 -0.002489 0.000169 -0.000066 0.1084940 -0.1457208 -2.6549536 4.2051715 2.2896129 51.6726895 21.4578629
1.9332775 -0.3543800 0.6962221 0.003313 0.002135 0.000283 -0.6208037 0.9264418 -0.1738120 46.6738926 -34.5866594 8.1302150 15.1531839
1.9455894 -0.3228572 0.7731753 0.002454 0.002065 0.000841 0.5485792 -0.7210995 0.3016977 48.4169396 -31.7593427 16.6060557 14.6922586
1.9397852 -0.2857430 0.8486109 0.001204 0.001722 0.001230 1.3128346 -1.5432372 1.0930820 48.1350238 -28.1066599 24.9569405 14.4849517
1.9164265 -0.2442743 0.9191631 -0.000278 0.001287 0.001609 1.4312316 -1.5183373 1.6482625 45.8683369 -23.9322082 32.4909776 14.6466803
1.8768654 -0.2002622 0.9819740 -0.001810 0.000707 0.001762 1.0376755 -0.9962916 1.5956358 42.0018722 -19.4140936 38.8965578 15.0752085
1.8232026 -0.1556672 1.0351009 -0.003055 0.000255 0.001725 0.4372719 -0.3775369 0.8908196 36.9395637 -14.8900954 43.8490694 15.7658179
1.7579197 -0.1122363 1.0776644 -0.003912 -0.000091 0.001506 -0.0487639 0.0369718 -0.1331458 31.3493090 -10.5581686 47.4330228 16.5772004
1.6834542 -0.0712979 1.1097188 -0.004269 -0.000185 0.001185 -0.3042392 0.1897670 -1.1488159 25.6404360 -6.6083285 49.7378814 17.4916234
1.6018767 -0.0337226 1.1319715 -0.004263 -0.000162 0.000830 -0.3539376 0.1469883 -1.9633412 20.1974392 -3.0669900 51.0469756 18.4031963
1.5147015 0.0000002 1.1454893 -0.003955 -0.000002 0.000495 -0.2659832 0.0000016 -2.4449938 15.2377090 0.0013051 51.6128474 19.2889053
1.4227639 0.0296262 1.1514566 -0.003452 0.000114 0.000216 -0.1304640 -0.1727062 -2.7220954 10.8186965 2.6824862 51.6749218 20.1322584
1.3260723 0.0549734 1.1510208 -0.002891 0.000309 0.000005 0.0112439 -0.3332712 -2.8311211 6.9951882 4.9172556 51.4105750 20.9044594
2.0059190 -0.2957135 0.7015495 0.002471 0.002321 0.000563 4.2805765 -4.4711128 1.0839894 55.9883967 -29.7626971 9.0585739 13.2837019
2.0119356 -0.2578142 0.7830265 0.001444 0.002061 0.001179 6.0333310 -5.4048730 3.0325157 57.1386569 -26.0329224 18.3901259 12.7870612
1.9976315 -0.2153411 0.8614652 0.000093 0.001705 0.001837 6.2163722 -4.7882440 4.7766873 55.6397506 -21.6973556 27.1861186 12.9113557
1.9642168 -0.1701193 0.9330790 -0.001473 0.001056 0.002204 5.0601148 -3.3159535 5.4298700 51.8472978 -16.9649979 34.9137622 13.2594888
1.9139786 -0.1242653 0.9950463 -0.002812 0.000606 0.002315 3.1883505 -1.7202201 4.6132071 46.2728679 -12.2496320 41.0867247 14.1181222
1.8498517 -0.0797258 1.0458271 -0.003905 0.000141 0.002165 1.4976641 -0.6126945 2.9011302 39.7461523 -7.7018741 45.6070414 15.0173805
1.7748359 -0.0379859 1.0850998 -0.004379 0.000052 0.001771 0.3389299 -0.0822686 0.8905835 32.8859922 -3.6306733 48.5892108 16.2084936
1.6915315 0.0000003 1.1134476 -0.004571 0.000001 0.001325 -0.2034116 0.0000004 -0.7506013 26.2947937 -0.0006379 50.2939568 17.2201769
1.6018767 0.0337231 1.1319715 -0.004259 0.000163 0.000830 -0.3539548 -0.1469931 -1.9634369 20.1958146 3.0664786 51.0469626 18.4019877
1.5070482 0.0629584 1.1419804 -0.003862 0.000330 0.000423 -0.2690300 -0.3550299 -2.5859081 14.8455671 5.6730806 51.1706097 19.2972844
1.4074380 0.0875875 1.1447756 -0.003227 0.000499 0.000090 -0.1175768 -0.5654493 -2.9747978 10.1636560 7.8242959 50.8696219 20.3228912
2.0668517 -0.2239185 0.7061758 0.001489 0.002159 0.000774 12.6265906 -8.7217813 2.9691099 64.7710887 -23.0075542 9.9030563 11.4354267
2.0640553 -0.1805188 0.7909935 0.000369 0.001736 0.001654 13.8179385 -7.7219761 6.5205325 64.6800452 -18.5279134 19.7778257 11.2581147
2.0392569 -0.1342864 0.8709374 -0.000953 0.001209 0.002284 12.0753707 -5.2775435 8.8047898 61.5492410 -13.7018303 28.8752382 11.6061514
1.9945861 -0.0874583 0.9420857 -0.002359 0.000664 0.002680 8.4816948 -2.6579438 8.7309611 55.9234220 -8.8308492 36.4676442 12.4527772
1.9332886 -0.0421542 1.0019354 -0.003467 0.000163 0.002635 4.7206336 -0.8222083 6.6291083 48.6617823 -4.1559269 42.2710226 13.5823780
1.8589547 0.0000003 1.0495184 -0.004145 -0.000001 0.002294 1.9342436 -0.0000016 3.6853015 40.7506899 0.0006016 46.2321195 14.8860930
1.7748359 0.0379864 1.0850999 -0.004381 -0.000051 0.001771 0.3389592 0.0822749 0.8906605 32.8869710 3.6306704 48.5892139 16.2095620
1.6834542 0.0712984 1.1097189 -0.004269 0.000184 0.001185 -0.3042382 -0.1897651 -1.1488121 25.6405339 6.6097687 49.7375823 17.4917618
1.5864732 0.0997629 1.1247660 -0.003849 0.000356 0.000647 -0.4084008 -0.5411834 -2.4073063 19.1901637 9.1018511 50.0589399 18.6648358
1.4847350 0.1233545 1.1317005 -0.003330 0.000575 0.000208 -0.2735776 -0.8322915 -3.0303789 13.6480718 11.0987199 49.8593113 19.7447972
2.1113530 -0.1401440 0.7096630 0.000567 0.001549 0.000969 22.6122997 -8.9096333 5.0639999 71.6762452 -14.5248300 10.5058999 9.8963375
2.0976511 -0.0931453 0.7962561 -0.000412 0.001006 0.001891 21.3900081 -5.7469919 9.7232669 69.8776983 -9.6305111 20.7076962 10.0153799
2.0611520 -0.0456784 0.8760064 -0.001578 0.000456 0.002567 16.2290942 -2.3001825 11.5308038 64.8007377 -4.6929609 29.7451274 10.8856718
2.0050273 0.0000004 0.9452152 -0.002657 0.000000 0.002806 9.9645516 -0.0000039 10.1176116 57.3697946 -0.0002236 37.0416868 12.0292770
1.9332886 0.0421549 1.0019354 -0.003463 -0.000162 0.002633 4.7206020 0.8221974 6.6290643 48.6605789 4.1556110 42.2715597 13.5816385
1.8498517 0.0797264 1.0458272 -0.003905 -0.000139 0.002166 1.4976602 0.6126904 2.9011232 39.7465000 7.7008481 45.6070370 15.0171137
1.7579197 0.1122369 1.0776645 -0.003909 0.000093 0.001505 -0.0487839 -0.0369869 -0.1332005 31.3481863 10.5576331 47.4332718 16.5762214
1.6597571 0.1395863 1.0988182 -0.003670 0.000356 0.000873 -0.4996594 -0.6706860 -2.0250360 23.8553938 12.8529985 48.1767848 17.8427038
1.5567156 0.1618532 1.1108568 -0.003237 0.000657 0.000309 -0.4630944 -1.1653878 -3.1029839 17.3876476 14.6078160 48.2240290 19.1536335
2.1349866 -0.0477663 0.7115548 0.000006 0.000558 0.001084 29.7219677 -3.8070206 6.4969881 75.4321118 -4.9480431 10.8065122 9.0156533
2.1092912 0.0000004 0.7981042 -0.000736 -0.000000 0.002028 24.5072880 -0.0000047 11.0031489 71.6886631 0.0002478 20.9937699 9.6597335
2.0611520 0.0456792 0.8760064 -0.001580 -0.000455 0.002569 16.2291316 2.3001790 11.5308311 64.8013219 4.6928977 29.7447396 10.8859721
1.9945861 0.0874591 0.9420858 -0.002359 -0.000665 0.002681 8.4817064 2.6579407 8.7309743 55.9235223 8.8315004 36.4674083 12.4530289
1.9139786 0.1242660 0.9950464 -0.002814 -0.000606 0.002316 3.1883873 1.7202362 4.6132613 46.2738453 12.2500210 41.0862908 14.1189010
1.8232026 0.1556679 1.0351011 -0.003053 -0.000256 0.001725 0.4372792 0.3775425 0.8908348 36.9389830 14.8911480 43.8489248 15.7662401
1.7251921 0.1816475 1.0633982 -0.002934 0.000131 0.001031 -0.5666511 -0.7782276 -1.6742917 28.4748278 16.9216406 45.2700801 17.2699518
1.6218824 0.2023866 1.0815153 -0.002718 0.000516 0.000419 -0.6786454 -1.5547590 -3.1145877 21.1668172 18.4221356 45.7539570 18.6259140
2.1349866 0.0477671 0.7115548 0.000007 -0.000557 0.001081 29.7219472 3.8070092 6.4969841 75.4318056 4.9479253 10.8073103 9.0152365
2.0976511 0.0931462 0.7962562 -0.000412 -0.001006 0.001891 21.3899988 5.7469810 9.7232641 69.8777566 9.6301744 20.7075401 10.0153738
2.0392569 0.1342872 0.8709374 -0.000951 -0.001208 0.002282 12.0753489 5.2775271 8.8047757 61.5486347 13.7015500 28.8758841 11.6057564
1.9642168 0.1701201 0.9330791 -0.001473 -0.001055 0.002203 5.0600966 3.3159374 5.4298520 51.8471290 16.9643784 34.9140643 13.2589491
1.8768654 0.2002630 0.9819741 -0.001808 -0.000704 0.001760 1.0376582 0.9962737 1.5956098 42.0014667 19.4132928 38.8970738 15.0745164
1.7807853 0.2247780 1.0182535 -0.001951 -0.000181 0.001112 -0.5934711 -0.8434016 -1.3184697 32.8450468 21.1616163 41.2273413 16.6109441
1.6785569 0.2439350 1.0433152 -0.001895 0.000289 0.000474 -0.9363558 -2.0550207 -3.1347302 24.8022060 22.3542517 42.3709493 18.1620031
2.1113530 0.1401449 0.7096630 0.000566 -0.001548 0.000971 22.6123372 8.9096411 5.0640095 71.6766116 14.5247603 10.5052863 9.8966217
2.0640554 0.1805196 0.7909936 0.000370 -0.001736 0.001654 13.8179601 7.7219823 6.5205445 64.6798226 18.5284518 19.7779116 11.2581838
1.9976316 0.2153419 0.8614653 0.000090 -0.001705 0.001840 6.2164159 4.7882740 4.7767225 55.6406811 21.6975436 27.1852489 12.9120322
1.9164265 0.2442751 0.9191633 -0.000277 -0.001288 0.001609 1.4312512 1.5183568 1.6482858 45.8679240 23.9330723 32.4907019 14.6472132
1.8244785 0.2674400 0.9638420 -0.000506 -0.000720 0.001076 -0.7236916 -1.0775505 -1.2229109 36.4204320 25.4092973 35.9379458 16.3144839
1.7250154 0.2851654 0.9964454 -0.000750 -0.000082 0.000483 -1.2386597 -2.6944203 -3.1273931 27.9839756 26.3111109 37.9583386 17.8343278
2.0668517 0.2239194 0.7061758 0.001489 -0.002158 0.000773 12.6265833 8.7217719 2.9691093 64.7710202 23.0073301 9.9035322 11.4354319
2.0119357 0.2578150 0.7830266 0.001445 -0.002061 0.001178 6.0332983 5.4048410 3.0325006 57.1384992 26.0324965 18.3903571 12.7864939
1.9397853 0.2857438 0.8486111 0.001205 -0.001721 0.001227 1.3128227 1.5432224 1.0930726 48.1345090 28.1061948 24.9579682 14.4844209
1.8544590 0.3078654 0.9014829 0.000824 -0.001125 0.000931 -0.9748937 -1.5417100 -1.2434910 38.9942117 29.3918067 29.5964701 16.0280377
1.7597029 0.3245201 0.9417817 0.000570 -0.000494 0.000412 -1.5935451 -3.5276852 -3.0742193 30.4693687 30.0805146 32.6229889 17.6277354
2.0059191 0.2957144 0.7015496 0.002470 -0.002321 0.000566 4.2806124 4.4711486 1.0839990 55.9887520 29.7628374 9.0579056 13.2839918
1.9455895 0.3228581 0.7731754 0.002454 -0.002065 0.000842 0.5486049 0.7211329 0.3017120 48.4169270 31.7598444 16.6055599 14.6928461
1.8694783 0.3443109 0.8333182 0.002325 -0.001597 0.000669 -1.4596562 -2.4885595 -1.3568956 40.0686374 32.9414286 22.3864217 16.1714021
1.7814928 0.3603952 0.8809201 0.001934 -0.000899 0.000272 -1.9914412 -4.5894219 -2.9154363 31.9597549 33.4758632 26.4543060 17.6345308
1.9332775 0.3543809 0.6962222 0.003313 -0.002134 0.000280 -0.6208074 -0.9264470 -0.1738132 46.6737848 34.5864642 8.1312870 15.1530322
1.8690145 0.3753940 0.7620411 0.003217 -0.001695 0.000294 -2.0312764 -3.7972839 -1.2576999 39.7325598 35.7215016 14.8075761 16.3414349
1.7899086 0.3913741 0.8160469 0.002999 -0.001174 0.000125 -2.3734950 -5.8146844 -2.5461409 32.4129885 36.2819789 19.7871398 17.7583274
1.8529843 0.4004342 0.6904730 0.003929 -0.001791 0.000166 -2.5765054 -5.3940034 -0.8187623 37.8478144 37.8428583 7.1458285 16.9407732
1.7852054 0.4164571 0.7496455 0.003787 -0.001320 -0.000023 -2.6742009 -7.1105727 -1.9194595 31.6949655 38.3388866 12.8665857 18.0853900
1.7680053 0.4352908 0.6841512 0.004030 -0.001231 -0.000303 -2.7072146 -7.9992636 -0.9996789 30.0577241 39.6285848 6.2929222 18.4594953
1.7372824 0.4487353 0.6212290 0.003851 -0.001036 0.000008 -2.9213400 -10.0013816 -0.0000147 27.4438169 40.3163945 -0.0028184 19.0665902
1.8205652 0.4197768 0.6212288 0.003994 -0.001549 -0.000013 -2.7190417 -6.5701639 -0.0000082 34.6842396 39.0767214 0.0047792 17.4866690
1.9026146 0.3800014 0.6212287 0.003637 -0.001972 0.000004 -1.7918632 -3.1087396 -0.0000032 43.0983532 36.5826906 -0.0013899 15.9420573
1.9794701 0.3279575 0.6212285 0.003032 -0.002298 0.000000 1.7447593 2.1525562 0.0000017 52.3333147 32.6207471 -0.0004795 13.9947032
2.0471205 0.2626587 0.6212284 0.002129 -0.002299 -0.000004 8.8721683 7.5090397 0.0000039 61.7268798 26.8069469 0.0013241 12.1476225
2.1008449 0.1843505 0.6212283 0.001195 -0.001921 -0.000000 19.1897898 10.1703048 0.0000023 69.9250020 19.0870432 -0.0001622 10.3072779
2.1357295 0.0952749 0.6212282 0.000456 -0.001115 0.000003 29.0080948 7.4061480 -0.0000017 75.4575719 9.8898708 -0.0011320 9.1052047
2.1478636 0.0000004 0.6212282 0.000171 0.000000 -0.000006 33.2264220 -0.0000043 -0.0000039 77.4099431 -0.0001705 0.0017567 8.5477175
2.1357294 -0.0952740 0.6212282 0.000456 0.001114 0.000003 29.0080799 -7.4061518 -0.0000019 75.4576399 -9.8893818 -0.0009678 9.1048939
2.1008449 -0.1843496 0.6212283 0.001194 0.001921 0.000000 19.1898094 -10.1703207 0.0000021 69.9251093 -19.0872822 -0.0002962 10.3077902
2.0471205 -0.2626578 0.6212284 0.002128 0.002299 -0.000003 8.8721433 -7.5090215 0.0000038 61.7270266 -26.8065282 0.0011580 12.1473960
1.9794700 -0.3279566 0.6212285 0.003031 0.002298 -0.000000 1.7448028 -2.1526106 0.0000016 52.3334230 -32.6211968 -0.0001923 13.9952266
1.9026146 -0.3800005 0.6212287 0.003636 0.001972 0.000005 -1.7918861 3.1087801 -0.0000031 43.0988189 -36.5821002 -0.0015465 15.9417131
1.8205652 -0.4197758 0.6212288 0.003992 0.001550 -0.000011 -2.7189889 6.5700384 -0.0000082 34.6846906 -39.0772425 0.0040290 17.4880881
1.7372823 -0.4487343 0.6212290 0.003853 0.001036 0.000006 -2.9213683 10.0014818 -0.0000147 27.4431728 -40.3160394 -0.0020919 19.0659579
1.6791735 -0.4611052 0.5668658 0.004218 0.000893 0.000137 -3.0096343 12.8841782 1.2368550 22.8164464 -39.1250513 -4.7260061 19.8489940
1.6957999 -0.4478210 0.5076757 0.004053 0.000923 0.000180 -2.3353668 9.0626074 1.9894296 24.6912911 -40.0335433 -10.9524820 19.4145392
1.7034336 -0.4281563 0.4460509 0.003658 0.000842 0.000251 -2.2149849 7.9569314 2.8452195 25.3326565 -38.4836591 -17.0989778 19.2439658
1.7002274 -0.4024619 0.3846749 0.002588 0.000569 0.000192 -1.9671375 6.6911876 3.4497790 25.4230114 -36.3950296 -23.2846414 18.9401376
1.6852806 -0.3714187 0.3258547 0.001605 0.000278 0.000157 -1.6880600 5.5761929 3.8958830 24.5498271 -33.6007791 -29.1293275 18.9610783
1.6584578 -0.3360995 0.2716979 0.000340 -0.000107 0.000114 -1.3408617 4.4292867 4.0492446 22.9814055 -30.3715191 -34.4585807 18.9103449
1.6202870 -0.2978390 0.2238978 -0.000737 -0.000408 0.000066 -1.0076461 3.4509960 4.0472617 20.7066536 -26.8579535 -39.0385158 19.1574269
1.5718027 -0.2580637 0.1835975 -0.001747 -0.000675 0.000053 -0.7021862 2.6187091 3.9032702 17.9984591 -23.1750207 -42.7990523 19.3455595
1.5143499 -0.2181204 0.1513437 -0.002321 -0.000773 0.000054 -0.4490243 1.9693050 3.7280831 14.9632757 -19.5434171 -45.7113103 19.8118013
1.4493954 -0.1791541 0.1271395 -0.002761 -0.000803 0.000076 -0.2383721 1.4304109 3.4669822 11.9405512 -16.0164073 -47.8949065 20.1180058
1.3783886 -0.1420473 0.1105639 -0.002744 -0.000716 0.000101 -0.0787454 1.0463591 3.3080646 8.9332742 -12.6924469 -49.3724574 20.6905735
1.3026931 -0.1074190 0.1009017 -0.002636 -0.000562 0.000111 0.0461174 0.7210717 3.0763975 6.1911902 -9.6219538 -50.3779469 21.0542408
1.2236184 -0.0756667 0.0972623 -0.002307 -0.000384 0.000133 0.1451747 0.4945527 3.0267456 3.6952135 -6.7983314 -50.9048436 21.6048288
1.1425284 -0.0470206 0.0986435 -0.002027 -0.000243 0.000189 0.2151210 0.2885838 2.8536358 1.5922947 -4.2235098 -51.2246619 21.9297388
1.0615918 -0.0217523 0.1039287 -0.001623 -0.000012 0.000038 0.5506367 0.2498085 5.6225108 -0.2382120 -1.8778553 -50.3289496 22.4633998
1.7680052 0.4352910 0.5583066 0.004026 -0.001231 0.000307 -2.7071511 -7.9990800 0.9996336 30.0578700 39.6293609 -6.2945407 18.4618854
1.7852053 0.4164574 0.4928122 0.003778 -0.001319 0.000014 -2.6742276 -7.1106509 1.9194608 31.6991115 38.3382276 -12.8627545 18.0825347
1.7899085 0.3913746 0.4264106 0.003007 -0.001176 -0.000121 -2.3734585 -5.8146039 2.5460887 32.4097532 36.2831864 -19.7892024 17.7616249
1.7814927 0.3603958 0.3615373 0.001939 -0.000899 -0.000269 -1.9914647 -4.5894854 2.9154617 31.9581373 33.4754979 -26.4556510 17.6349459
1.7597028 0.3245208 0.3006755 0.000562 -0.000495 -0.000418 -1.5935221 -3.5276431 3.0741692 30.4728417 30.0814836 -32.6208766 17.6257021
1.7250152 0.2851661 0.2460116 -0.000739 -0.000082 -0.000481 -1.2386764 -2.6944648 3.1274323 27.9800299 26.3114363 -37.9596637 17.8359225
1.6785567 0.2439358 0.1991416 -0.001889 0.000290 -0.000473 -0.9363462 -2.0550067 3.1346967 24.7999824 22.3546366 -42.3714433 18.1653577
1.6218821 0.2023873 0.1609414 -0.002723 0.000516 -0.000421 -0.6786602 -1.5547989 3.1146553 21.1694100 18.4218833 -45.7533386 18.6191631
1.5567153 0.1618538 0.1315998 -0.003230 0.000656 -0.000310 -0.4630733 -1.1653398 3.1028435 17.3851111 14.6092067 -48.2242048 19.1585918
1.4847347 0.1233550 0.1107560 -0.003316 0.000577 -0.000208 -0.2736255 -0.8324412 3.0309110 13.6422325 11.0978552 -49.8590578 19.7452075
1.4074376 0.0875879 0.0976809 -0.003239 0.000497 -0.000093 -0.1175589 -0.5653660 2.9743455 10.1701799 7.8261663 -50.8693927 20.3169432
1.3260719 0.0549737 0.0914356 -0.002872 0.000314 -0.000004 0.0112327 -0.3329458 2.8283438 6.9869564 4.9153966 -51.4131982 20.9051347
1.2415727 0.0257243 0.0910055 -0.002476 0.000160 0.000064 0.1083747 -0.1455600 2.6520333 4.2001483 2.2967635 -51.6747459 21.4635575
1.1542545 0.0000001 0.0953975 -0.002035 0.000000 -0.000010 0.1693346 0.0000015 2.3583045 1.7929466 -0.0010667 -51.7638209 21.9384040
1.8529842 0.4004344 0.5519845 0.003934 -0.001790 -0.000157 -2.5765667 -5.3941345 0.8187695 37.8463343 37.8420029 -7.1507886 16.9398910
1.8690144 0.3753943 0.4804162 0.003219 -0.001697 -0.000295 -2.0312643 -3.7972651 1.2576846 39.7314523 35.7223200 -14.8068825 16.3426592
1.8694782 0.3443114 0.4091390 0.002317 -0.001594 -0.000676 -1.4597069 -2.4886498 1.3569384 40.0720790 32.9401285 -22.3840028 16.1679484
1.8544588 0.3078659 0.3409741 0.000828 -0.001126 -0.000931 -0.9748947 -1.5417147 1.2434901 38.9926088 29.3924639 -29.5970117 16.0302084
1.8244783 0.2674406 0.2786149 -0.000504 -0.000718 -0.001075 -0.7237253 -1.0776033 1.2229667 36.4195921 25.4081427 -35.9388214 16.3146499
1.7807851 0.2247786 0.2242032 -0.001963 -0.000182 -0.001119 -0.5934672 -0.8433987 1.3184608 32.8500178 21.1619219 -41.2250314 16.6079877
1.7251919 0.1816480 0.1790584 -0.002929 0.000131 -0.001031 -0.5666668 -0.7782518 1.6743381 28.4729432 16.9210508 -45.2709464 17.2714712
1.6597568 0.1395868 0.1436384 -0.003669 0.000356 -0.000874 -0.4996467 -0.6706717 2.0249855 23.8552554 12.8532642 -48.1768171 17.8461272
1.5864728 0.0997632 0.1176904 -0.003860 0.000357 -0.000650 -0.4084093 -0.5411970 2.4073577 19.1950139 9.1005662 -50.0584264 18.6583008
1.5070478 0.0629586 0.1004760 -0.003862 0.000330 -0.000424 -0.2690069 -0.3550011 2.5856878 14.8456528 5.6736908 -51.1711013 19.3031021
1.4227635 0.0296263 0.0909998 -0.003445 0.000113 -0.000217 -0.1304655 -0.1727090 2.7221292 10.8155332 2.6814978 -51.6750934 20.1348736
1.3343323 0.0000001 0.0881825 -0.003131 0.000004 -0.000055 0.0000833 0.0000021 2.6503460 7.3372584 -0.0024847 -51.8049896 20.6819046
1.2415727 -0.0257241 0.0910056 -0.002475 -0.000162 0.000060 0.1084798 0.1457055 2.6546010 4.2001262 -2.2954198 -51.6724716 21.4654526
1.9332775 0.3543810 0.5462351 0.003309 -0.002134 -0.000293 -0.6207549 -0.9263692 0.1737968 46.6752949 34.5870876 -8.1266758 15.1534280
1.9455894 0.3228583 0.4692816 0.002458 -0.002064 -0.000834 0.5485700 0.7210879 -0.3016917 48.4155654 31.7593827 -16.6088386 14.6931113
1.9397852 0.2857442 0.3938459 0.001209 -0.001722 -0.001226 1.3128591 1.5432676 -1.0931011 48.1332032 28.1074114 -24.9586375 14.4863763
1.9164264 0.2442756 0.3232935 -0.000282 -0.001287 -0.001614 1.4312142 1.5183207 -1.6482419 45.8700643 23.9325679 -32.4891014 14.6441733
1.8768653 0.2002634 0.2604825 -0.001802 -0.000706 -0.001758 1.0376766 0.9962939 -1.5956378 41.9991779 19.4144649 -38.8983113 15.0772085
1.8232024 0.1556683 0.2073555 -0.003045 -0.000255 -0.001722 0.4372490 0.3775175 -0.8907733 36.9362191 14.8908809 -43.8499629 15.7668297
1.7579195 0.1122372 0.1647920 -0.003917 0.000093 -0.001509 -0.0487736 -0.0369792 0.1331725 31.3516160 10.5584023 -47.4320058 16.5729268
1.6834539 0.0712987 0.1327376 -0.004258 0.000184 -0.001184 -0.3042637 -0.1897817 1.1489091 25.6364024 6.6098046 -49.7382722 17.4930346
1.6018764 0.0337232 0.1104849 -0.004253 0.000162 -0.000830 -0.3539495 -0.1469915 1.9634088 20.1936344 3.0677760 -51.0472963 18.4049573
1.5147012 0.0000002 0.0969671 -0.003960 -0.000000 -0.000498 -0.2660042 0.0000016 2.4451886 15.2402498 0.0005126 -51.6119592 19.2803242
1.4227635 -0.0296260 0.0909999 -0.003442 -0.000114 -0.000217 -0.1304629 0.1727094 2.7220743 10.8139278 -2.6805143 -51.6751936 20.1343586
1.3260719 -0.0549734 0.0914357 -0.002875 -0.000319 -0.000002 0.0112284 0.3328191 2.8272297 6.9884102 -4.9117746 -51.4147908 20.9041194
2.0059191 0.2957145 0.5409074 0.002472 -0.002320 -0.000561 4.2805552 4.4710913 -1.0839787 55.9881097 29.7623022 -9.0597962 13.2834807
2.0119356 0.2578153 0.4594302 0.001439 -0.002061 -0.001191 6.0333008 5.4048489 -3.0324965 57.1405252 26.0328247 -18.3859864 12.7856151
1.9976315 0.2153422 0.3809914 0.000094 -0.001703 -0.001836 6.2163547 4.7882343 -4.7766727 55.6395383 21.6964559 -27.1872347 12.9121961
1.9642167 0.1701204 0.3093774 -0.001472 -0.001056 -0.002205 5.0601014 3.3159474 -5.4298570 51.8469514 16.9650149 -34.9139330 13.2604243
1.9139785 0.1242663 0.2474101 -0.002822 -0.000605 -0.002323 3.1883554 1.7202234 -4.6132163 46.2768865 12.2487667 -41.0844506 14.1155190
1.8498515 0.0797266 0.1966293 -0.003904 -0.000140 -0.002166 1.4976777 0.6126993 -2.9011584 39.7460723 7.7012515 -45.6074874 15.0198021
1.7748357 0.0379865 0.1573565 -0.004377 -0.000050 -0.001771 0.3389460 0.0822719 -0.8906263 32.8854462 3.6297581 -48.5897451 16.2109330
1.6915312 0.0000002 0.1290088 -0.004585 0.000002 -0.001330 -0.2033876 0.0000004 0.7505134 26.3007105 -0.0009952 -50.2927733 17.2168356
1.6018764 -0.0337228 0.1104850 -0.004256 -0.000162 -0.000830 -0.3539419 0.1469908 1.9633664 20.1946418 -3.0677213 -51.0473166 18.4061949
1.5070478 -0.0629582 0.1004761 -0.003862 -0.000328 -0.000424 -0.2690127 0.3550121 2.5857426 14.8459374 -5.6752528 -51.1707643 19.3027934
1.4074376 -0.0875876 0.0976810 -0.003240 -0.000492 -0.000094 -0.1175830 0.5654864 2.9749563 10.1706341 -7.8286590 -50.8683237 20.3182378
2.0668517 0.2239195 0.5362809 0.001490 -0.002158 -0.000769 12.6266221 8.7218034 -2.9691120 64.7707540 23.0078038 -9.9052712 11.4363324
2.0640553 0.1805198 0.4514630 0.000374 -0.001737 -0.001648 13.8179303 7.7219739 -6.5205278 64.6786910 18.5284573 -19.7799125 11.2584272
2.0392568 0.1342874 0.3715191 -0.000956 -0.001209 -0.002290 12.0753699 5.2775447 -8.8047922 61.5504929 13.7023117 -28.8733842 11.6047602
1.9945860 0.0874592 0.3003707 -0.002352 -0.000664 -0.002676 8.4816617 2.6579322 -8.7309315 55.9211881 8.8312110 -36.4694433 12.4536805
1.9332885 0.0421550 0.2405210 -0.003459 -0.000164 -0.002631 4.7206105 0.8222009 -6.6290796 48.6593286 4.1568469 -42.2724494 13.5832363
1.8589545 0.0000003 0.1929380 -0.004149 -0.000000 -0.002298 1.9342052 -0.0000017 -3.6852304 40.7523525 0.0002486 -46.2308510 14.8819579
1.7748357 -0.0379860 0.1573565 -0.004373 0.000050 -0.001770 0.3389332 -0.0822698 -0.8905927 32.8840390 -3.6294497 -48.5901435 16.2107999
1.6834539 -0.0712982 0.1327377 -0.004259 -0.000186 -0.001184 -0.3042653 0.1897841 1.1489152 25.6369432 -6.6080491 -49.7384092 17.4923117