# volRat = 0.650000
# viscRat = 5.000000
# alpha = 1.000000
# shRate = 2.250000
# tnum = 8900
# time = 9.499667
VARIABLES = X, Y, Z, U, V, W, F_B0, F_B1, F_B2, F_0, F_1, F_2, T
ZONE N=2562 E=5120 F=FEPOINT ET=TRIANGLE
1.6549091 0.4681848 0.6212288 0.002971 -0.000551 -0.000003 3.0405216 14.4619986 0.0000241 23.3892112 51.2270203 0.0009006 20.0495939
-1.6549091 0.4681849 0.6212288 -0.002971 -0.000551 -0.000003 -3.0405109 14.4619960 0.0000247 -23.3892019 51.2270169 0.0009013 20.0495940
1.6549092 -0.4681837 0.6212288 0.002960 0.000553 -0.000002 3.0405950 -14.4623958 0.0000248 23.3932023 -51.2273379 0.0002586 20.0524058
-1.6549092 -0.4681837 0.6212288 -0.002960 0.000553 -0.000002 -3.0406057 -14.4623983 0.0000243 -23.3932113 -51.2273408 0.0002582 20.0524056
0.9828752 0.0000001 1.1302374 -0.001754 0.000013 0.000039 -1.8901531 -0.0000392 16.9260811 -2.4348286 -0.0072336 59.0141837 22.6309753
0.9828746 0.0000001 0.1122188 -0.001746 0.000013 0.000449 -1.9948680 -0.0000035 -17.8638936 -2.5086051 -0.0052721 -59.9349871 22.6304464
-0.9828752 0.0000001 1.1302374 0.001754 0.000013 0.000039 1.8901552 0.0000154 16.9260994 2.4348307 -0.0072023 59.0142013 22.6309753
-0.9828746 0.0000001 0.1122188 0.001746 0.000013 0.000449 1.9948681 0.0000091 -17.8638938 2.5086052 -0.0052647 -59.9349871 22.6304464
-0.0000000 0.3397526 0.8376474 0.000000 0.003111 0.002350 0.0000237 -85.1033908 -48.9732675 0.0000225 -32.0797477 -14.3207564 25.6383322
-0.0000000 -0.3397506 0.8376463 0.000000 -0.001099 0.001086 0.0000025 72.9335969 -41.9635593 0.0000023 20.0817546 -7.4331976 25.6734141
-0.0000000 0.3397514 0.4048124 0.000000 -0.001955 0.000427 0.0000003 -77.7431042 44.7390867 0.0000004 -24.9187152 10.3124206 25.5883247
-0.0000000 -0.3397502 0.4048129 0.000000 0.002302 0.000780 0.0000024 67.7459683 38.9795076 0.0000023 15.0306592 4.5996169 25.6392767
1.6777862 0.4614399 0.6755907 0.004211 -0.000894 -0.000143 -2.9861241 -12.8603343 -1.2336020 22.7350330 39.1649688 4.7258768 19.8695177
1.6945131 0.4481622 0.7347812 0.004029 -0.000915 -0.000190 -2.3265568 -9.0777213 -1.9911572 24.6091309 40.0346159 10.9458278 19.4269085
1.7022615 0.4284908 0.7964100 0.003643 -0.000840 -0.000254 -2.2080739 -7.9715439 -2.8481910 25.2533849 38.4915556 17.0836225 19.2593680
1.6991756 0.4027752 0.8577940 0.002587 -0.000562 -0.000215 -1.9625173 -6.7058094 -3.4547065 25.3462061 36.4003841 23.2757022 18.9542992
1.6843473 0.3716966 0.9166252 0.001585 -0.000272 -0.000168 -1.6844575 -5.5875509 -3.9011163 24.4915001 33.6100147 29.1134949 18.9717993
1.6576347 0.3363301 0.9707940 0.000327 0.000114 -0.000129 -1.3382992 -4.4380040 -4.0547741 22.9310300 30.3785771 34.4462587 18.9156396
1.6195605 0.2980142 1.0186044 -0.000740 0.000414 -0.000082 -1.0054935 -3.4563299 -4.0515576 20.6619035 26.8648599 39.0287075 19.1711780
1.5711556 0.2581806 1.0589110 -0.001757 0.000682 -0.000067 -0.7003332 -2.6213353 -3.9058602 17.9665011 23.1778133 42.7923531 19.3458490
1.5137626 0.2181815 1.0911654 -0.002339 0.000772 -0.000062 -0.4474265 -1.9700273 -3.7288205 14.9424126 19.5483362 45.7047131 19.8157211
1.4488478 0.1791672 1.1153636 -0.002753 0.000813 -0.000089 -0.2372216 -1.4308392 -3.4681035 11.9136353 16.0111623 47.8933006 20.1256367
1.3778608 0.1420242 1.1319270 -0.002757 0.000716 -0.000109 -0.0777476 -1.0454347 -3.3059209 8.9206509 12.6924370 49.3713722 20.6931355
1.3021671 0.1073740 1.1415718 -0.002639 0.000564 -0.000127 0.0467718 -0.7194463 -3.0708742 6.1776519 9.6155407 50.3832160 21.0490209
1.2230795 0.0756152 1.1451906 -0.002295 0.000394 -0.000127 0.1461861 -0.4955156 -3.0347247 3.6779202 6.7925534 50.8956680 21.6209886
1.1419667 0.0469768 1.1437881 -0.002015 0.000250 -0.000127 0.2247656 -0.3005315 -2.9744142 1.5823837 4.2063485 51.1047423 21.9220631
1.0610046 0.0217273 1.1384835 -0.001631 0.000014 -0.000160 0.5370630 -0.2430005 -5.4751417 -0.2520109 1.8917266 50.4718439 22.4619592
1.7668443 -0.4356925 0.6841500 0.004020 0.001234 -0.000300 -2.7007185 8.0168405 -1.0009155 29.9686648 -39.6439691 6.2863967 18.4757041
1.7841546 -0.4168582 0.7496485 0.003781 0.001319 -0.000034 -2.6734065 7.1381637 -1.9250365 31.6067865 -38.3460521 12.8580439 18.0992807
1.7889718 -0.3917575 0.8160596 0.002990 0.001173 0.000118 -2.3756155 5.8420246 -2.5556869 32.3325362 -36.2917908 19.7714126 17.7727686
1.7806671 -0.3607439 0.8809466 0.001925 0.000894 0.000256 -1.9940732 4.6114594 -2.9268123 31.8911759 -33.4854688 26.4412172 17.6444543
1.7589787 -0.3248194 0.9418238 0.000558 0.000490 0.000399 -1.5960229 3.5444396 -3.0862988 30.4126810 -30.0909248 32.6075095 17.6378602
1.7243779 -0.2854051 0.9965015 -0.000763 0.000075 0.000468 -1.2397693 2.7047988 -3.1372070 27.9389773 -26.3191291 37.9466877 17.8400404
1.6779878 -0.2441105 1.0433806 -0.001912 -0.000290 0.000466 -0.9362477 2.0605050 -3.1412723 24.7687348 -22.3635677 42.3600370 18.1691597
1.6213619 -0.2024997 1.0815834 -0.002728 -0.000524 0.000405 -0.6781486 1.5578585 -3.1194732 21.1377298 -18.4234158 45.7481412 18.6286151
1.5562238 -0.1619114 1.1109203 -0.003245 -0.000656 0.000301 -0.4622068 1.1665186 -3.1052405 17.3650662 -14.6127189 48.2177000 19.1591838
1.4842530 -0.1233703 1.1317526 -0.003337 -0.000581 0.000198 -0.2726696 0.8325335 -3.0311412 13.6292307 -11.0950870 49.8569568 19.7456063
1.4069491 -0.0875760 1.1448106 -0.003232 -0.000495 0.000084 -0.1167587 0.5653247 -2.9746837 10.1487164 -7.8255979 50.8666748 20.3281433
1.3255631 -0.0549510 1.1510353 -0.002892 -0.000314 -0.000001 0.0119191 0.3330740 -2.8306109 6.9802340 -4.9100411 51.4097329 20.9060663
1.2410350 -0.0257065 1.1514437 -0.002488 -0.000164 -0.000066 0.1091681 0.1457774 -2.6576558 4.1932162 -2.2913340 51.6677917 21.4624635
1.1536865 0.0000002 1.1470313 -0.002020 -0.000006 -0.000138 0.1591345 0.0000021 -2.2105426 1.7687983 0.0043781 51.9089182 21.9585321
1.8520560 -0.4008826 0.6904764 0.003931 0.001795 0.000156 -2.5857490 5.4331354 -0.8237949 37.7540661 -37.8538355 7.1423290 16.9545986
1.8681988 -0.3758304 0.7620554 0.003210 0.001698 0.000289 -2.0447593 3.8351951 -1.2688715 39.6488358 -35.7353011 14.7964013 16.3562156
1.8687695 -0.3447146 0.8333496 0.002324 0.001597 0.000655 -1.4739274 2.5205144 -1.3728743 39.9935076 -32.9548847 22.3745747 16.1807134
1.8538450 -0.3082184 0.9015343 0.000816 0.001125 0.000920 -0.9874722 1.5659397 -1.2617882 38.9314301 -29.4059524 29.5817293 16.0385407
1.8239421 -0.2677293 0.9639120 -0.000523 0.000711 0.001064 -0.7308913 1.0910522 -1.2371247 36.3688910 -25.4243844 35.9275549 16.3191931
1.7803064 -0.2249972 1.0183369 -0.001961 0.000177 0.001099 -0.5983309 0.8523270 -1.3313828 32.8040576 -21.1718618 41.2163961 16.6170390
1.7247498 -0.1817978 1.0634870 -0.002937 -0.000136 0.001017 -0.5701165 0.7847475 -1.6872371 28.4422257 -16.9282115 45.2554971 17.2715260
1.6593316 -0.1396756 1.0989036 -0.003682 -0.000356 0.000865 -0.5000088 0.6726425 -2.0299785 23.8304815 -12.8594544 48.1701530 17.8471624
1.5860467 -0.0998043 1.1248404 -0.003858 -0.000362 0.000638 -0.4080970 0.5420626 -2.4105327 19.1687058 -9.1007913 50.0538757 18.6654694
1.5066056 -0.0629684 1.1420375 -0.003868 -0.000326 0.000415 -0.2684194 0.3552826 -2.5875636 14.8275085 -5.6763835 51.1661944 19.3017721
1.4222937 -0.0296225 1.1514928 -0.003454 -0.000115 0.000210 -0.1297622 0.1727143 -2.7226340 10.8013635 -2.6800222 51.6715234 20.1318171
1.3338283 0.0000002 1.1542879 -0.003108 0.000004 0.000047 0.0007171 0.0000021 -2.6478279 7.3108714 -0.0027008 51.8049463 20.6911237
1.2410349 0.0257069 1.1514437 -0.002487 0.000168 -0.000070 0.1090343 -0.1455943 -2.6544003 4.1916722 2.2900511 51.6707568 21.4597392
1.9325841 -0.3548465 0.6962336 0.003313 0.002140 0.000283 -0.6490650 0.9715050 -0.1820506 46.5882165 -34.6025493 8.1238531 15.1652434
1.9450021 -0.3232946 0.7732071 0.002453 0.002069 0.000835 0.5182491 -0.6830891 0.2854620 48.3407602 -31.7759899 16.5968249 14.7024354
1.9392887 -0.2861295 0.8486680 0.001196 0.001726 0.001227 1.2860944 -1.5155921 1.0723029 48.0714427 -28.1230482 24.9441129 14.4927735
1.9160002 -0.2445937 0.9192451 -0.000289 0.001288 0.001604 1.4116389 -1.5010139 1.6277580 45.8168758 -23.9469117 32.4784456 14.6517978
1.8764857 -0.2005061 0.9820749 -0.001823 0.000704 0.001754 1.0249834 -0.9862182 1.5780106 41.9610455 -19.4247337 38.8854644 15.0801414
1.8228466 -0.1558359 1.0352113 -0.003066 0.000251 0.001716 0.4302421 -0.3722169 0.8775444 36.9058869 -14.8979024 43.8395489 15.7678378
1.7575670 -0.1123382 1.0777735 -0.003928 -0.000099 0.001498 -0.0514139 0.0390567 -0.1405591 31.3238569 -10.5624949 47.4268107 16.5804665
1.6830877 -0.0713474 1.1098173 -0.004280 -0.000190 0.001176 -0.3052769 0.1907856 -1.1544060 25.6169533 -6.6099706 49.7320601 17.4927546
1.6014833 -0.0337377 1.1320523 -0.004273 -0.000160 0.000822 -0.3538989 0.1472869 -1.9667466 20.1777743 -3.0692593 51.0416749 18.4054875
1.5142720 0.0000003 1.1455485 -0.003962 -0.000002 0.000488 -0.2654424 0.0000015 -2.4466777 15.2196971 0.0019104 51.6087115 19.2908220
1.4222937 0.0296230 1.1514928 -0.003456 0.000117 0.000209 -0.1297509 -0.1726955 -2.7223968 10.8029511 2.6804928 51.6720099 20.1350484
1.3255630 0.0549515 1.1510354 -0.002890 0.000310 0.000000 0.0119200 -0.3330953 -2.8308300 6.9797859 4.9155445 51.4086359 20.9060547
2.0054520 -0.2961574 0.7015717 0.002473 0.002330 0.000560 4.2354406 -4.4350203 1.0739102 55.9147322 -29.7812599 9.0539610 13.2916334
2.0115584 -0.2582080 0.7830794 0.001438 0.002067 0.001178 5.9927024 -5.3808788 3.0154074 57.0769104 -26.0504047 18.3816342 12.7926513
1.9973191 -0.2156653 0.8615505 0.000085 0.001710 0.001834 6.1855742 -4.7747568 4.7577371 55.5883855 -21.7127618 27.1768778 12.9146871
1.9639412 -0.1703632 0.9331911 -0.001492 0.001054 0.002203 5.0397708 -3.3092636 5.4130869 51.8079626 -16.9761209 34.9037950 13.2614038
1.9137130 -0.1244286 0.9951739 -0.002826 0.000610 0.002312 3.1750252 -1.7162864 4.5981770 46.2382282 -12.2578307 41.0763368 14.1185387
1.8495741 -0.0798175 1.0459572 -0.003919 0.000142 0.002160 1.4936216 -0.6121522 2.8961236 39.7219475 -7.7078411 45.6048804 15.0189434
1.7745296 -0.0380218 1.0852208 -0.004400 0.000046 0.001767 0.3363952 -0.0817998 0.8848998 32.8651451 -3.6303460 48.5838160 16.2088466
1.6911851 0.0000004 1.1135508 -0.004590 0.000002 0.001319 -0.2047275 0.0000004 -0.7564849 26.2749665 -0.0008646 50.2874554 17.2236951
1.6014833 0.0337384 1.1320524 -0.004268 0.000163 0.000822 -0.3539262 -0.1472961 -1.9668982 20.1754452 3.0685191 51.0415901 18.4035031
1.5066055 0.0629690 1.1420376 -0.003870 0.000333 0.000415 -0.2684156 -0.3552744 -2.5875277 14.8281990 5.6727284 51.1667774 19.3009316
1.4069491 0.0875765 1.1448108 -0.003229 0.000500 0.000084 -0.1167612 -0.5653328 -2.9747487 10.1470176 7.8236373 50.8667674 20.3253352
2.0665867 -0.2242912 0.7062098 0.001487 0.002171 0.000776 12.5799840 -8.7083602 2.9607981 64.7143349 -23.0250267 9.8987348 11.4385295
2.0638528 -0.1808202 0.7910676 0.000361 0.001743 0.001656 13.7828251 -7.7179996 6.5091594 64.6335815 -18.5419432 19.7712846 11.2588253
2.0390831 -0.1345038 0.8710475 -0.000969 0.001215 0.002289 12.0515790 -5.2772841 8.7940291 61.5115052 -13.7132103 28.8668131 11.6056744
1.9944094 -0.0875909 0.9422202 -0.002377 0.000667 0.002681 8.4659183 -2.6578851 8.7212325 55.8911800 -8.8378316 36.4602183 12.4520252
1.9330836 -0.0422117 1.0020787 -0.003490 0.000166 0.002637 4.7118086 -0.8221327 6.6219900 48.6372622 -4.1603958 42.2657092 13.5826694
1.8587040 0.0000004 1.0496557 -0.004185 -0.000000 0.002302 1.9159783 -0.0000013 3.6538124 40.7071268 0.0007334 46.2039314 14.8860737
1.7745296 0.0380226 1.0852209 -0.004404 -0.000044 0.001768 0.3364388 0.0818097 0.8850144 32.8666377 3.6304024 48.5838402 16.2106131
1.6830877 0.0713482 1.1098174 -0.004280 0.000188 0.001177 -0.3052761 -0.1907840 -1.1544032 25.6170652 6.6119530 49.7316373 17.4929400
1.5860466 0.0998050 1.1248405 -0.003862 0.000362 0.000638 -0.4080756 -0.5420316 -2.4104072 19.1706148 9.1022529 50.0537322 18.6678291
1.4842530 0.1233708 1.1317527 -0.003334 0.000578 0.000200 -0.2726811 -0.8325649 -3.0312701 13.6281079 11.0986753 49.8556760 19.7468694
2.1112440 -0.1403948 0.7097076 0.000560 0.001559 0.000971 22.5842349 -8.9158840 5.0610940 71.6347969 -14.5365606 10.5025412 9.8938662
2.0975663 -0.0933097 0.7963460 -0.000427 0.001011 0.001896 21.3723322 -5.7529839 9.7213421 69.8432542 -9.6381453 20.7016705 10.0118148
2.0610536 -0.0457551 0.8761312 -0.001596 0.000457 0.002572 16.2150835 -2.3023713 11.5281568 64.7700782 -4.6962365 29.7384591 10.8825482
2.0048852 0.0000005 0.9453580 -0.002683 0.000000 0.002814 9.9519766 -0.0000022 10.1117873 57.3427864 -0.0001441 37.0333017 12.0267303
1.9330836 0.0422127 1.0020787 -0.003486 -0.000163 0.002635 4.7117598 0.8221204 6.6219220 48.6356446 4.1599634 42.2663412 13.5815721
1.8495741 0.0798184 1.0459573 -0.003920 -0.000139 0.002160 1.4936146 0.6121473 2.8961104 39.7222920 7.7066308 45.6049123 15.0185042
1.7575669 0.1123390 1.0777736 -0.003924 0.000102 0.001497 -0.0514474 -0.0390820 -0.1406506 31.3222428 10.5616816 47.4271093 16.5788595
1.6593315 0.1396764 1.0989038 -0.003682 0.000360 0.000864 -0.5000093 -0.6726412 -2.0299812 23.8303701 12.8573607 48.1709441 17.8464598
1.5562237 0.1619121 1.1109205 -0.003242 0.000662 0.000300 -0.4622119 -1.1665282 -3.1052765 17.3640062 14.6102746 48.2185040 19.1565220
2.1349638 -0.0478550 0.7116056 -0.000006 0.000562 0.001088 29.7157346 -3.8132241 6.4992588 75.3996337 -4.9519435 10.8031550 9.0100382
2.1092482 0.0000005 0.7982000 -0.000752 0.000000 0.002035 24.4992751 -0.0000010 11.0058639 71.6584232 0.0002231 20.9879117 9.6544667
2.0610536 0.0457561 0.8761312 -0.001598 -0.000455 0.002574 16.2151378 2.3023755 11.5281963 64.7708948 4.6961487 29.7379948 10.8831389
1.9944094 0.0875919 0.9422202 -0.002377 -0.000666 0.002682 8.4659280 2.6578844 8.7212439 55.8913410 8.8384387 36.4599393 12.4522769
1.9137130 0.1244295 0.9951740 -0.002830 -0.000609 0.002314 3.1750748 1.7163106 4.5982500 46.2395863 12.2584468 41.0757818 14.1197813
1.8228466 0.1558368 1.0352114 -0.003064 -0.000251 0.001716 0.4302504 0.3722235 0.8775617 36.9052827 14.8991704 43.8393072 15.7685023
1.7247498 0.1817986 1.0634871 -0.002942 0.000137 0.001019 -0.5700862 -0.7847045 -1.6871483 28.4442657 16.9292538 45.2548648 17.2731951
1.6213618 0.2025005 1.0815836 -0.002725 0.000523 0.000407 -0.6781526 -1.5578649 -3.1194934 21.1369968 18.4258595 45.7468323 18.6298781
2.1349638 0.0478561 0.7116056 -0.000005 -0.000560 0.001085 29.7156978 3.8132193 6.4992513 75.3992231 4.9517702 10.8040944 9.0095260
2.0975663 0.0933107 0.7963461 -0.000426 -0.001010 0.001897 21.3723139 5.7529774 9.7213353 69.8432558 9.6379658 20.7014944 10.0117263
2.0390831 0.1345049 0.8710476 -0.000966 -0.001213 0.002287 12.0515380 5.2772636 8.7940013 61.5106718 13.7128859 28.8675734 11.6050491
1.9639411 0.1703642 0.9331912 -0.001491 -0.001052 0.002203 5.0397461 3.3092452 5.4130623 51.8076366 16.9755327 34.9041846 13.2607618
1.8764857 0.2005070 0.9820751 -0.001821 -0.000700 0.001752 1.0249507 0.9861859 1.5779610 41.9603977 19.4235865 38.8861465 15.0789203
1.7803064 0.2249981 1.0183371 -0.001960 -0.000175 0.001099 -0.5983464 -0.8523482 -1.3314179 32.8039884 21.1708084 41.2169044 16.6159769
1.6779877 0.2441114 1.0433809 -0.001908 0.000295 0.000463 -0.9362578 -2.0605248 -3.1413082 24.7673225 22.3618211 42.3613469 18.1675149
2.1112440 0.1403959 0.7097076 0.000558 -0.001557 0.000974 22.5842797 8.9159019 5.0611052 71.6352853 14.5365329 10.5017920 9.8943171
2.0638528 0.1808213 0.7910676 0.000361 -0.001742 0.001655 13.7828415 7.7180079 6.5091691 64.6334272 18.5423688 19.7713984 11.2589714
1.9973191 0.2156663 0.8615506 0.000082 -0.001708 0.001838 6.1856229 4.7747932 4.7577764 55.5896243 21.7130267 27.1758129 12.9156246
1.9160001 0.2445947 0.9192453 -0.000288 -0.001288 0.001604 1.4116580 1.5010336 1.6277807 45.8165116 23.9478730 32.4780477 14.6525312
1.8239421 0.2677303 0.9639122 -0.000526 -0.000711 0.001067 -0.7308534 -1.0909949 -1.2370612 36.3698530 25.4254144 35.9267318 16.3207592
1.7243778 0.2854060 0.9965017 -0.000763 -0.000074 0.000470 -1.2397614 -2.7047798 -3.1371894 27.9389410 26.3202871 37.9457245 17.8410462
2.0665867 0.2242924 0.7062099 0.001487 -0.002168 0.000773 12.5799565 8.7083415 2.9607927 64.7142144 23.0247226 9.8993225 11.4383774
2.0115584 0.2582091 0.7830795 0.001440 -0.002066 0.001177 5.9926505 5.3808320 3.0153827 57.0764663 26.0501680 18.3818872 12.7919678
1.9392887 0.2861306 0.8486681 0.001199 -0.001722 0.001224 1.2860661 1.5155586 1.0722800 48.0707504 28.1223775 24.9453910 14.4919839
1.8538449 0.3082194 0.9015345 0.000817 -0.001122 0.000920 -0.9875105 -1.5660001 -1.2618380 38.9316153 29.4049537 29.5821613 16.0371429
1.7589787 0.3248204 0.9418241 0.000561 -0.000486 0.000396 -1.5960368 -3.5444692 -3.0863281 30.4118942 30.0898535 32.6088182 17.6366606
2.0054520 0.2961586 0.7015718 0.002471 -0.002329 0.000564 4.2354822 4.4350641 1.0739213 55.9152835 29.7814183 9.0531117 13.2921565
1.9450021 0.3232957 0.7732072 0.002452 -0.002068 0.000836 0.5182747 0.6831229 0.2854763 48.3409775 31.7763831 16.5962844 14.7030658
1.8687694 0.3447157 0.8333497 0.002321 -0.001596 0.000659 -1.4738820 -2.5204365 -1.3728329 39.9942787 32.9557287 22.3732269 16.1821159
1.7806671 0.3607449 0.8809468 0.001927 -0.000893 0.000256 -1.9940525 -4.6114107 -2.9267842 31.8905502 33.4864048 26.4406126 17.6456412
1.9325841 0.3548476 0.6962336 0.003314 -0.002138 0.000278 -0.6490780 -0.9715246 -0.1820544 46.5879699 34.6023388 8.1251128 15.1650356
1.8681988 0.3758315 0.7620555 0.003213 -0.001696 0.000287 -2.0448181 -3.8353054 -1.2689089 39.6480107 35.7347489 14.7971904 16.3547163
1.7889718 0.3917586 0.8160597 0.002990 -0.001169 0.000113 -2.3756316 -5.8420639 -2.5557063 32.3328032 36.2908315 19.7729127 17.7717674
1.8520560 0.4008837 0.6904764 0.003928 -0.001793 0.000162 -2.5857080 -5.4330497 -0.8237825 37.7554183 37.8539620 7.1403591 16.9556622
1.7841545 0.4168594 0.7496486 0.003781 -0.001318 -0.000033 -2.6733779 -7.1380876 -1.9250176 31.6064917 38.3467789 12.8575163 18.1003793
1.7668442 0.4356936 0.6841500 0.004022 -0.001232 -0.000305 -2.7007286 -8.0168712 -1.0009201 29.9680902 39.6438309 6.2881194 18.4756021
1.7360178 0.4491196 0.6212286 0.003845 -0.001036 0.000007 -2.9113903 -10.0187567 -0.0000128 27.3492886 40.3210613 -0.0023585 19.0835486
1.8195229 0.4202157 0.6212285 0.003991 -0.001550 -0.000013 -2.7215728 -6.6028964 -0.0000066 34.5892231 39.0860178 0.0046896 17.5026771
1.9018062 0.3804726 0.6212283 0.003638 -0.001976 0.000004 -1.8124982 -3.1548561 -0.0000022 43.0066769 36.5965462 -0.0011988 15.9560852
1.9788949 0.3284267 0.6212281 0.003034 -0.002304 -0.000000 1.7042105 2.1082443 0.0000007 52.2516124 32.6386040 -0.0003653 14.0052485
2.0467642 0.2630810 0.6212279 0.002128 -0.002308 -0.000003 8.8207347 7.4827874 -0.0000009 61.6607316 26.8255066 0.0011765 12.1533042
2.1006734 0.1846743 0.6212278 0.001190 -0.001931 -0.000000 19.1491344 10.1694772 -0.0000078 69.8760770 19.1018725 -0.0000593 10.3071318
2.1356839 0.0954518 0.6212277 0.000447 -0.001121 0.000003 28.9936043 7.4163904 -0.0000165 75.4213916 9.8974860 -0.0011353 9.1004327
2.1478632 0.0000006 0.6212277 0.000160 0.000000 -0.000006 33.2266093 0.0000004 -0.0000206 77.3782507 -0.0000605 0.0016639 8.5406327
2.1356839 -0.0954507 0.6212277 0.000446 0.001122 0.000002 28.9935983 -7.4163881 -0.0000165 75.4214257 -9.8971061 -0.0009648 9.1001421
2.1006734 -0.1846732 0.6212278 0.001189 0.001931 -0.000000 19.1491769 -10.1694991 -0.0000077 69.8763321 -19.1019535 -0.0002024 10.3076915
2.0467642 -0.2630798 0.6212279 0.002128 0.002309 -0.000003 8.8207149 -7.4827700 -0.0000008 61.6607964 -26.8251427 0.0009599 12.1530159
1.9788949 -0.3284255 0.6212281 0.003032 0.002306 -0.000001 1.7042697 -2.1083174 0.0000007 52.2520409 -32.6389261 -0.0000497 14.0059957
1.9018062 -0.3804715 0.6212283 0.003637 0.001977 0.000004 -1.8125208 3.1548952 -0.0000022 43.0068590 -36.5960683 -0.0014438 15.9556775
1.8195229 -0.4202145 0.6212285 0.003986 0.001552 -0.000010 -2.7215069 6.6027360 -0.0000066 34.5905267 -39.0863703 0.0038201 17.5043734
1.7360178 -0.4491184 0.6212286 0.003849 0.001038 0.000005 -2.9114241 10.0188721 -0.0000129 27.3477352 -40.3208604 -0.0017626 19.0830050
1.6777862 -0.4614389 0.5668668 0.004207 0.000893 0.000146 -2.9861814 12.8605880 1.2335880 22.7371534 -39.1633268 -4.7271968 19.8648416
1.6945130 -0.4481614 0.5076762 0.004036 0.000921 0.000186 -2.3264942 9.0774881 1.9910784 24.6059871 -40.0369467 -10.9433927 19.4314944
1.7022613 -0.4284902 0.4460473 0.003647 0.000838 0.000264 -2.2081303 7.9717626 2.8482432 25.2521283 -38.4889729 -17.0890734 19.2571534
1.6991754 -0.4027748 0.3846632 0.002575 0.000565 0.000205 -1.9624706 6.7056676 3.4546090 25.3510390 -36.4021576 -23.2708393 18.9540641
1.6843470 -0.3716964 0.3258319 0.001594 0.000272 0.000172 -1.6844994 5.5877095 3.9012030 24.4880357 -33.6082081 -29.1164499 18.9706489
1.6576343 -0.3363299 0.2716630 0.000325 -0.000113 0.000127 -1.3382823 4.4379674 4.0547169 22.9316379 -30.3794198 -34.4452668 18.9198944
1.6195601 -0.2980142 0.2238524 -0.000745 -0.000415 0.000081 -1.0055077 3.4563979 4.0516133 20.6644840 -26.8626969 -39.0294452 19.1635099
1.5711551 -0.2581806 0.1835456 -0.001757 -0.000676 0.000062 -0.7003296 2.6213397 3.9058421 17.9665375 -23.1810725 -42.7902620 19.3516181
1.5137621 -0.2181817 0.1512911 -0.002331 -0.000778 0.000064 -0.4474537 1.9701642 3.7290533 14.9388585 -19.5434265 -45.7072035 19.8142262
1.4488472 -0.1791673 0.1270928 -0.002767 -0.000803 0.000083 -0.2371652 1.4305147 3.4672889 11.9203793 -16.0169698 -47.8912294 20.1236821
1.3778602 -0.1420243 0.1105293 -0.002749 -0.000720 0.000109 -0.0777702 1.0457584 3.3069131 8.9172490 -12.6871513 -49.3723585 20.6919835
1.3021664 -0.1073741 0.1008844 -0.002638 -0.000560 0.000114 0.0468930 0.7213093 3.0787875 6.1774838 -9.6192070 -50.3739009 21.0577878
1.2230788 -0.0756152 0.0972655 -0.002305 -0.000386 0.000148 0.1450805 0.4917768 3.0117730 3.6816954 -6.7926882 -50.9193271 21.6077955
1.1419660 -0.0469768 0.0986679 -0.002021 -0.000239 0.000188 0.2176615 0.2910364 2.8804091 1.5819493 -4.2193500 -51.1972886 21.9332192
1.0610039 -0.0217271 0.1039724 -0.001629 -0.000018 0.000009 0.5525593 0.2500205 5.6331452 -0.2437648 -1.8713782 -50.3183671 22.4641087
1.7668441 0.4356938 0.5583071 0.004018 -0.001232 0.000309 -2.7006588 -8.0166691 1.0008760 29.9684752 39.6446734 -6.2896921 18.4781967
1.7841544 0.4168597 0.4928083 0.003773 -0.001317 0.000024 -2.6734053 -7.1381697 1.9250233 31.6103265 38.3461667 -12.8539500 18.0975622
1.7889715 0.3917591 0.4263971 0.002998 -0.001172 -0.000111 -2.3755866 -5.8419645 2.5556488 32.3295925 36.2922995 -19.7747352 17.7753544
1.7806667 0.3607455 0.3615098 0.001931 -0.000893 -0.000254 -1.9940752 -4.6114751 2.9268127 31.8889545 33.4861138 -26.4419014 17.6458402
1.7589783 0.3248211 0.3006324 0.000554 -0.000488 -0.000402 -1.5960054 -3.5444110 3.0862660 30.4149000 30.0911639 -32.6068109 17.6353112
1.7243773 0.2854067 0.2459547 -0.000752 -0.000075 -0.000468 -1.2397759 -2.7048219 3.1372271 27.9349434 26.3205882 -37.9471475 17.8424585
1.6779872 0.2441120 0.1990754 -0.001903 0.000295 -0.000463 -0.9362406 -2.0604966 3.1412540 24.7652047 22.3627977 -42.3616121 18.1710353
1.6213613 0.2025011 0.1608725 -0.002728 0.000524 -0.000409 -0.6781647 -1.5579011 3.1195544 21.1388960 18.4253108 -45.7465837 18.6235905
1.5562231 0.1619127 0.1315356 -0.003235 0.000660 -0.000301 -0.4621870 -1.1664726 3.1051163 17.3614693 14.6123894 -48.2184943 19.1615885
1.4842523 0.1233713 0.1107033 -0.003320 0.000580 -0.000201 -0.2727185 -0.8326855 3.0316964 13.6225134 11.0974834 -49.8556637 19.7469550
1.4069484 0.0875769 0.0976452 -0.003240 0.000498 -0.000088 -0.1167664 -0.5653639 2.9748983 10.1526771 7.8259442 -50.8659140 20.3203314
1.3255623 0.0549517 0.0914205 -0.002872 0.000314 0.000003 0.0118983 -0.3324806 2.8255919 6.9719229 4.9139818 -51.4137290 20.9065840
1.2410343 0.0257070 0.0910122 -0.002476 0.000158 0.000069 0.1089942 -0.1455397 2.6534163 4.1874299 2.2972314 -51.6709150 21.4649126
1.1536858 0.0000002 0.0954245 -0.002030 -0.000001 0.000002 0.1685881 0.0000021 2.3418412 1.7782721 0.0003772 -51.7792026 21.9419375
1.8520559 0.4008839 0.5519803 0.003933 -0.001792 -0.000152 -2.5857737 -5.4331912 0.8237943 37.7539044 37.8529724 -7.1455643 16.9545856
1.8681986 0.3758318 0.4804010 0.003215 -0.001697 -0.000290 -2.0448075 -3.8352906 1.2688974 39.6471239 35.7355676 -14.7960427 16.3558572
1.8687692 0.3447161 0.4091067 0.002314 -0.001593 -0.000666 -1.4739409 -2.5205420 1.3728857 39.9975246 32.9540447 -22.3714824 16.1786000
1.8538446 0.3082199 0.3409218 0.000821 -0.001124 -0.000920 -0.9875164 -1.5660134 1.2618451 38.9302316 29.4056880 -29.5822985 16.0392033
1.8239416 0.2677308 0.2785440 -0.000524 -0.000708 -0.001066 -0.7308950 -1.0910606 1.2371323 36.3692349 25.4237916 -35.9277622 16.3205179
1.7803059 0.2249986 0.2241190 -0.001971 -0.000176 -0.001107 -0.5983488 -0.8523549 1.3314247 32.8087638 21.1711957 -41.2145214 16.6132937
1.7247492 0.1817991 0.1789689 -0.002937 0.000138 -0.001019 -0.5701072 -0.7847370 1.6872130 28.4425959 16.9281284 -45.2558048 17.2742933
1.6593309 0.1396768 0.1435521 -0.003682 0.000359 -0.000866 -0.5000008 -0.6726335 2.0299511 23.8306752 12.8578942 -48.1707052 17.8495750
1.5860460 0.0998053 0.1176154 -0.003872 0.000364 -0.000641 -0.4080859 -0.5420485 2.4104738 19.1750762 9.1002269 -50.0533949 18.6615874
1.5066049 0.0629692 0.1004183 -0.003870 0.000331 -0.000417 -0.2683976 -0.3552531 2.5873624 14.8285348 5.6738070 -51.1670809 19.3064344
1.4222930 0.0296232 0.0909631 -0.003450 0.000118 -0.000211 -0.1297435 -0.1726873 2.7222567 10.8004141 2.6786823 -51.6723402 20.1370250
1.3338276 0.0000002 0.0881680 -0.003130 0.000005 -0.000050 0.0007186 0.0000021 2.6517210 7.3220556 -0.0032537 -51.8015278 20.6871726
1.2410343 -0.0257066 0.0910122 -0.002476 -0.000158 0.000060 0.1092717 0.1459147 2.6601662 4.1882478 -2.2962244 -51.6645898 21.4676612
1.9325840 0.3548478 0.5462228 0.003310 -0.002139 -0.000291 -0.6490211 -0.9714401 0.1820375 46.5893746 34.6030735 -8.1209358 15.1656641
1.9450019 0.3232960 0.4692491 0.002457 -0.002068 -0.000829 0.5182401 0.6830781 -0.2854568 48.3395688 31.7760202 -16.5994532 14.7032901
1.9392884 0.2861309 0.3937880 0.001201 -0.001724 -0.001223 1.2861060 1.5156084 -1.0723132 48.0694936 28.1238431 -24.9459023 14.4940828
1.9159997 0.2445951 0.3232107 -0.000292 -0.001287 -0.001609 1.4116177 1.5009946 -1.6277356 45.8182831 23.9473636 -32.4768232 14.6496880
1.8764852 0.2005074 0.2603808 -0.001815 -0.000702 -0.001750 1.0249719 0.9862095 -1.5779956 41.9581552 19.4251461 -38.8872522 15.0817688
1.8228460 0.1558372 0.2072444 -0.003057 -0.000250 -0.001714 0.4302192 0.3721979 -0.8774994 36.9024908 14.8988642 -43.8404268 15.7689391
1.7575664 0.1123394 0.1646822 -0.003931 0.000101 -0.001501 -0.0514324 -0.0390708 0.1406099 31.3252614 10.5628227 -47.4259909 16.5761813
1.6830871 0.0713484 0.1326384 -0.004269 0.000188 -0.001176 -0.3053008 -0.1908004 1.1544990 25.6127938 6.6119502 -49.7323938 17.4940637
1.6014827 0.0337385 0.1104034 -0.004262 0.000161 -0.000823 -0.3539174 -0.1472933 1.9668544 20.1735974 3.0702823 -51.0418888 18.4063709
1.5142713 0.0000003 0.0969074 -0.003964 -0.000000 -0.000491 -0.2654607 0.0000016 2.4468545 15.2213348 0.0009385 -51.6079640 19.2829518
1.4222930 -0.0296227 0.0909631 -0.003446 -0.000118 -0.000211 -0.1297527 0.1727033 2.7224484 10.7981501 -2.6775175 -51.6721478 20.1357494
1.3255624 -0.0549513 0.0914206 -0.002876 -0.000320 0.000004 0.0118966 0.3324365 2.8251795 6.9734472 -4.9085611 -51.4148928 20.9054489
2.0054519 0.2961587 0.5408843 0.002473 -0.002328 -0.000559 4.2354133 4.4349948 -1.0739029 55.9147175 29.7806943 -9.0550001 13.2914754
2.0115582 0.2582093 0.4593765 0.001434 -0.002067 -0.001190 5.9926395 5.3808290 -3.0153792 57.0784301 26.0504329 -18.3776608 12.7911482
1.9973188 0.2156666 0.3809052 0.000085 -0.001706 -0.001834 6.1855438 4.7747412 -4.7577212 55.5885288 21.7116824 -27.1778386 12.9155819
1.9639407 0.1703645 0.3092646 -0.001491 -0.001054 -0.002205 5.0397295 3.3092426 -5.4130523 51.8076757 16.9761744 -34.9037776 13.2620848
1.9137126 0.1244298 0.2472817 -0.002837 -0.000606 -0.002320 3.1750239 1.7162885 -4.5981839 46.2423231 12.2567877 -41.0742084 14.1164681
1.8495736 0.0798185 0.1964984 -0.003919 -0.000140 -0.002161 1.4936191 0.6121515 -2.8961246 39.7221470 7.7071578 -45.6051339 15.0210133
1.7745290 0.0380227 0.1572349 -0.004400 -0.000043 -0.001768 0.3364185 0.0818051 -0.8849630 32.8653116 3.6290489 -48.5842822 16.2116086
1.6911845 0.0000004 0.1289049 -0.004603 0.000002 -0.001324 -0.2047077 0.0000004 0.7564134 26.2806269 -0.0011775 -50.2863118 17.2207532
1.6014827 -0.0337378 0.1104035 -0.004266 -0.000159 -0.000823 -0.3539048 0.1472903 1.9667842 20.1752133 -3.0703919 -51.0419084 18.4080913
1.5066049 -0.0629687 0.1004184 -0.003870 -0.000327 -0.000417 -0.2684004 0.3552601 2.5873889 14.8287659 -5.6761398 -51.1666518 19.3063090
1.4069484 -0.0875764 0.0976453 -0.003242 -0.000490 -0.000089 -0.1167719 0.5653946 2.9750375 10.1537934 -7.8292209 -50.8652106 20.3223525
2.0665866 0.2242925 0.5362459 0.001488 -0.002169 -0.000770 12.5799974 8.7083753 -2.9608097 64.7139130 23.0254009 -9.9010376 11.4393982
2.0638525 0.1808214 0.4513881 0.000365 -0.001742 -0.001650 13.7827902 7.7179889 -6.5091584 64.6322989 18.5424264 -19.7733545 11.2591884
2.0390828 0.1345051 0.3714081 -0.000971 -0.001214 -0.002294 12.0515457 5.2772769 -8.7940240 61.5123491 13.7138528 -28.8653444 11.6043344
1.9944090 0.0875920 0.3002354 -0.002370 -0.000665 -0.002677 8.4658635 2.6578708 -8.7211940 55.8889487 8.8382131 -36.4620345 12.4528972
1.9330831 0.0422127 0.2403769 -0.003482 -0.000165 -0.002634 4.7117603 0.8221231 -6.6219352 48.6345518 4.1614652 -42.2671712 13.5831928
1.8587034 0.0000004 0.1928000 -0.004187 0.000000 -0.002306 1.9159351 -0.0000013 -3.6537370 40.7082135 0.0003414 -46.2029863 14.8822984
1.7745290 -0.0380219 0.1572349 -0.004395 0.000044 -0.001767 0.3363991 -0.0818011 -0.8849118 32.8634095 -3.6287073 -48.5847565 16.2111207
1.6830871 -0.0713477 0.1326385 -0.004270 -0.000190 -0.001176 -0.3053025 0.1908026 1.1545056 25.6133666 -6.6097159 -49.7326132 17.4932600