# volRat = 0.650000
# viscRat = 5.000000
# alpha = 1.000000
# shRate = 2.250000
# tnum = 900
# time = 0.963000
VARIABLES = X, Y, Z, U, V, W, F_B0, F_B1, F_B2, F_0, F_1, F_2, T
ZONE N=2562 E=5120 F=FEPOINT ET=TRIANGLE
1.6669892 0.4682715 0.6212299 0.002868 -0.005216 0.000000 2.8078939 12.1609100 0.0000033 24.5753762 48.8507971 -0.0000301 20.1069976
-1.6669892 0.4682715 0.6212299 -0.002868 -0.005216 0.000000 -2.8078846 12.1609100 0.0000038 -24.5753593 48.8508003 -0.0000308 20.1070252
1.6669892 -0.4682715 0.6212299 0.002868 0.005216 0.000000 2.8078847 -12.1609106 0.0000037 24.5753593 -48.8508010 -0.0000319 20.1070247
-1.6669892 -0.4682715 0.6212299 -0.002868 0.005216 0.000000 -2.8078938 -12.1609095 0.0000033 -24.5753760 -48.8507964 -0.0000279 20.1069983
1.0052840 -0.0000000 1.1356302 -0.005177 -0.000000 -0.004973 -3.0624401 -0.0000408 26.1963729 -3.6932376 0.0000414 68.5017674 22.8609771
1.0052840 -0.0000000 0.1068294 -0.005175 0.000000 0.004992 -3.0654125 -0.0000096 -26.2218583 -3.6960846 -0.0001704 -68.5267838 22.8609510
-1.0052840 0.0000000 1.1356302 0.005177 0.000000 -0.004973 3.0625067 0.0000410 26.1969422 3.6932379 -0.0000382 68.5023361 22.8610359
-1.0052840 0.0000000 0.1068294 0.005175 -0.000000 0.004992 3.0653546 0.0000094 -26.2213621 3.6960894 0.0001672 -68.5262872 22.8608952
-0.0000000 0.3363821 0.8295267 0.000000 0.003505 0.003476 0.0000324 -127.4833570 -71.4839795 0.0000157 -69.1355656 -34.8898357 25.9095625
0.0000000 -0.3363821 0.8295267 0.000000 -0.003508 0.003477 0.0000030 127.4874602 -71.4857621 0.0001154 69.1395789 -34.8915850 25.9095750
-0.0000000 0.3363823 0.4129330 0.000000 0.003766 -0.003618 -0.0000035 -127.8033640 71.6630930 0.0001258 -69.4502535 35.0626386 25.9102738
0.0000000 -0.3363823 0.4129330 -0.000000 -0.003763 -0.003616 0.0000103 127.7994982 71.6609938 -0.0002147 69.4464511 35.0606169 25.9102623
1.6891151 0.4612498 0.6754021 0.004690 -0.003671 -0.000436 -2.9340937 -11.5764816 -1.1067953 24.6331861 40.6986777 4.8393361 19.9370821
1.7051235 0.4478491 0.7344055 0.004695 -0.003368 -0.000793 -2.4142381 -8.6761875 -1.8988351 26.3064217 40.5523088 11.0159689 19.4880746
1.7122540 0.4282638 0.7958911 0.004412 -0.003089 -0.001191 -2.2729557 -7.5871577 -2.7049408 26.9314171 38.9769055 17.1952223 19.3322428
1.7087150 0.4028466 0.8572175 0.003337 -0.002782 -0.001549 -1.9985430 -6.3283388 -3.2523276 26.9997910 36.9106350 23.4507759 19.0337271
1.6936572 0.3722474 0.9161182 0.002297 -0.002330 -0.001854 -1.7115558 -5.2636335 -3.6638162 26.0843317 34.1444233 29.3666892 19.0730892
1.6669888 0.3374799 0.9705199 0.000885 -0.001778 -0.002182 -1.3617632 -4.1791076 -3.8028357 24.4567229 30.9420790 34.7931160 19.0270723
1.6292695 0.2997998 1.0187478 -0.000401 -0.001311 -0.002526 -1.0303425 -3.2614223 -3.8023412 22.0986408 27.4592209 39.5026303 19.3058118
1.5815509 0.2605458 1.0596558 -0.001711 -0.000864 -0.002884 -0.7263922 -2.4786586 -3.6667119 19.2992506 23.7983229 43.4053156 19.4925591
1.5251783 0.2209828 1.0926699 -0.002649 -0.000566 -0.003229 -0.4749699 -1.8690700 -3.5049054 16.1476609 20.1581839 46.4811741 19.9799484
1.4615982 0.1821916 1.1177366 -0.003475 -0.000315 -0.003538 -0.2638615 -1.3592534 -3.2563397 12.9695126 16.5909112 48.8184389 20.2971121
1.3922133 0.1450183 1.1352082 -0.003927 -0.000189 -0.003746 -0.1041290 -1.0002454 -3.1185106 9.7976060 13.2069323 50.4184683 20.8816702
1.3183087 0.1100788 1.1457170 -0.004300 -0.000133 -0.003926 0.0231580 -0.6771035 -2.8424040 6.8593184 10.0587523 51.5755657 21.2393470
1.2410809 0.0778011 1.1500633 -0.004457 -0.000118 -0.004029 0.1098663 -0.4152962 -2.4957468 4.1286062 7.1739077 52.4618731 21.8305232
1.1617495 0.0484761 1.1491612 -0.004767 0.000035 -0.002688 0.3518814 -0.4870372 -4.7203756 1.9587064 4.2340580 50.4235512 22.1328088
1.0823051 0.0224618 1.1440510 -0.004817 -0.000095 -0.003596 0.4543798 -0.2057478 -4.5256227 -0.3256886 2.0429396 52.4889548 22.6960886
1.7750129 -0.4344729 0.6838914 0.005205 0.003378 -0.000608 -2.6110148 7.2455440 -0.9034324 31.7702550 -40.2088951 6.3407944 18.5340748
1.7915895 -0.4155618 0.7491546 0.005168 0.003188 -0.000620 -2.6567230 6.6594102 -1.7946551 33.2887416 -38.5766083 12.8835390 18.1615848
1.7958979 -0.3906289 0.8153887 0.004440 0.002955 -0.000804 -2.3136952 5.3554030 -2.3415024 34.0010563 -36.5428336 19.8327549 17.8431612
1.7873318 -0.3600097 0.8802050 0.003354 0.002568 -0.000989 -1.9227181 4.1902061 -2.6572096 33.5220413 -33.7585813 26.5382842 17.7280532
1.7656727 -0.3246517 0.9411672 0.001884 0.002039 -0.001190 -1.5318104 3.2047948 -2.7862217 32.0006428 -30.4094276 32.7783809 17.7377520
1.7314273 -0.2858906 0.9961234 0.000358 0.001504 -0.001500 -1.1927183 2.4460453 -2.8294462 29.4764771 -26.6941359 38.2274746 17.9578231
1.6857400 -0.2452350 1.0434895 -0.001086 0.001002 -0.001913 -0.9082069 1.8698697 -2.8384989 26.2464544 -22.7853942 42.7940026 18.2999981
1.6301701 -0.2041484 1.0823733 -0.002273 0.000608 -0.002370 -0.6679362 1.4227219 -2.8311139 22.5347722 -18.8704965 46.3568229 18.7748286
1.5664304 -0.1638865 1.1125442 -0.003211 0.000296 -0.002845 -0.4674023 1.0760427 -2.8398795 18.6466899 -15.0485469 49.0071402 19.3154640
1.4961678 -0.1254193 1.1343013 -0.003778 0.000169 -0.003255 -0.2871170 0.7731487 -2.7835615 14.7703322 -11.4907716 50.8180321 19.9126220
1.4208179 -0.0894280 1.1482980 -0.004171 0.000050 -0.003609 -0.1366629 0.5277473 -2.7384903 11.1113133 -8.1473992 51.9789792 20.5048938
1.3415274 -0.0563540 1.1553878 -0.004363 0.000045 -0.003811 -0.0097495 0.3121885 -2.6093448 7.7421128 -5.1418617 52.6193405 21.0935938
1.2590849 -0.0264628 1.1564952 -0.004504 -0.000012 -0.003741 0.0951402 0.1472010 -2.6330989 4.7257324 -2.3908406 52.7476853 21.6628672
1.1736105 -0.0000000 1.1525184 -0.004587 -0.000000 -0.004337 0.0405900 0.0000000 -0.5765895 1.9650170 0.0000073 54.5089160 22.1733047
1.8573260 -0.3988114 0.6901505 0.005835 0.003343 -0.000132 -2.4401065 4.8621237 -0.7374764 39.3767135 -37.8859221 7.1294821 17.0114500
1.8727555 -0.3737714 0.7614174 0.005294 0.003025 -0.000255 -1.8486539 3.2982592 -1.0920535 41.2188518 -35.7147443 14.7630769 16.4113551
1.8729491 -0.3429391 0.8324746 0.004463 0.002826 -0.000164 -1.2651502 2.0613824 -1.1236779 41.5246709 -32.9506208 22.3250762 16.2575962
1.8579894 -0.3069496 0.9005625 0.002901 0.002264 -0.000203 -0.7925183 1.1979251 -0.9656431 40.4412171 -29.4514348 29.5534180 16.1221283
1.8284135 -0.2671046 0.9630425 0.001387 0.001789 -0.000408 -0.5696010 0.8096527 -0.9176678 37.8746584 -25.5508239 35.9747009 16.4251800
1.7854759 -0.2250431 1.0178026 -0.000355 0.001169 -0.000773 -0.4729385 0.6397668 -0.9976632 34.3081829 -21.3804480 41.4007382 16.7293626
1.7309848 -0.1824268 1.0635191 -0.001711 0.000752 -0.001282 -0.4837380 0.6290827 -1.3479352 29.9261694 -17.1965537 45.6352119 17.4037904
1.6669858 -0.1407027 1.0996978 -0.002923 0.000374 -0.001859 -0.4511500 0.5683684 -1.7057304 25.2645651 -13.1391130 48.7528750 17.9803789
1.5954480 -0.1009771 1.1265323 -0.003589 0.000205 -0.002482 -0.3900603 0.4777625 -2.1073788 20.5032380 -9.3633624 50.8494247 18.8176502
1.5180335 -0.0640047 1.1446890 -0.004134 0.000046 -0.003036 -0.2713886 0.3213421 -2.3148821 16.0234534 -5.8750546 52.1416989 19.4534559
1.4359414 -0.0302510 1.1550837 -0.004264 0.000066 -0.003486 -0.1459849 0.1599346 -2.4864611 11.8101430 -2.7884323 52.7902324 20.3050976
1.3497499 -0.0000000 1.1587102 -0.004510 -0.000000 -0.003738 -0.0196360 0.0000000 -2.4606215 8.1008326 0.0000006 52.9875595 20.8667355
1.2590849 0.0264628 1.1564952 -0.004504 0.000012 -0.003741 0.0951383 -0.1471980 -2.6330455 4.7257372 2.3908381 52.7477392 21.6628543
1.9351581 -0.3521730 0.6958219 0.005965 0.003097 0.000049 -0.3355306 0.4811328 -0.0903104 47.9735944 -34.3598796 8.0620184 15.2352681
1.9469552 -0.3207831 0.7723879 0.005273 0.002871 0.000375 0.8462999 -1.0709618 0.4484202 49.6406266 -31.5120227 16.4582627 14.7845320
1.9410577 -0.2840503 0.8475405 0.004030 0.002451 0.000523 1.5951074 -1.8062876 1.2803237 49.3446267 -27.9113030 24.7518257 14.5881004
1.9180204 -0.2431335 0.9179990 0.002404 0.001987 0.000612 1.6851934 -1.7212807 1.8691197 47.1205303 -23.8387501 32.2934166 14.7610896
1.8791804 -0.1997317 0.9809642 0.000582 0.001379 0.000398 1.2571521 -1.1600001 1.8568162 43.3308374 -19.4287830 38.7970211 15.1986463
1.8266107 -0.1556847 1.0345085 -0.001068 0.000868 -0.000054 0.6146354 -0.5082283 1.1970154 38.3438186 -14.9943016 43.9277309 15.8948382
1.7627615 -0.1126345 1.0777222 -0.002431 0.000408 -0.000726 0.0697422 -0.0503494 0.1806804 32.7764523 -10.6966296 47.7211161 16.7124342
1.6900409 -0.0718366 1.1106000 -0.003315 0.000179 -0.001504 -0.2280239 0.1341684 -0.8076163 27.0644413 -6.7516406 50.2941399 17.6314603
1.6104833 -0.0341266 1.1337742 -0.003872 0.000023 -0.002281 -0.3223624 0.1243124 -1.6468889 21.5337584 -3.1542324 51.8344080 18.5519702
1.5255411 -0.0000000 1.1482337 -0.004161 -0.000000 -0.002957 -0.2645453 0.0000000 -2.1667524 16.4340404 0.0000067 52.5896465 19.4474179
1.4359414 0.0302510 1.1550837 -0.004264 -0.000066 -0.003486 -0.1459849 -0.1599346 -2.4864620 11.8101444 2.7884277 52.7902321 20.3050870
1.3415274 0.0563539 1.1553878 -0.004363 -0.000045 -0.003811 -0.0097496 -0.3121900 -2.6093578 7.7421090 5.1418641 52.6193267 21.0936053
2.0055516 -0.2932492 0.7010518 0.005889 0.002779 0.000372 4.5902946 -4.6385467 1.1262521 56.9038594 -29.3216732 8.9277616 13.3894692
2.0112167 -0.2556567 0.7820475 0.004976 0.002426 0.000819 6.2999791 -5.4662877 3.0719366 57.9808133 -25.6299933 18.1123446 12.9013780
1.9970760 -0.2137016 0.8601484 0.003553 0.002060 0.001251 6.4588513 -4.8185017 4.8137921 56.5286649 -21.4087787 26.8230444 13.0417687
1.9643108 -0.1690918 0.9316724 0.001712 0.001414 0.001326 5.3012569 -3.3607435 5.5081648 52.8709208 -16.8076042 34.5612812 13.3875195
1.9151502 -0.1238089 0.9938485 -0.000045 0.000967 0.001058 3.4257204 -1.7835996 4.7829523 47.4702838 -12.2160583 40.8649042 14.2525690
1.8524625 -0.0796799 1.0451238 -0.001667 0.000427 0.000457 1.7075017 -0.6712797 3.1739824 41.0959435 -7.7349557 45.6106199 15.1461300
1.7791936 -0.0381060 1.0851163 -0.002734 0.000210 -0.000428 0.4912076 -0.1138284 1.2281804 34.3179293 -3.6736817 48.8678201 16.3444754
1.6979031 -0.0000000 1.1143270 -0.003553 -0.000000 -0.001348 -0.1173260 0.0000000 -0.4067866 27.7232161 0.0000017 50.8351842 17.3552067
1.6104833 0.0341266 1.1337742 -0.003872 -0.000023 -0.002281 -0.3223624 -0.1243123 -1.6468890 21.5337599 3.1542264 51.8344079 18.5519562
1.5180335 0.0640047 1.1446890 -0.004134 -0.000046 -0.003036 -0.2713885 -0.3213420 -2.3148816 16.0234518 5.8750460 52.1417006 19.4534669
1.4208179 0.0894280 1.1482980 -0.004171 -0.000051 -0.003609 -0.1366627 -0.5277467 -2.7384872 11.1113146 8.1474052 51.9789811 20.5048939
2.0645290 -0.2216301 0.7055691 0.005633 0.002269 0.000640 12.6961268 -8.5244599 2.9083480 65.2023583 -22.4997085 9.7007163 11.5833555
2.0616439 -0.1787157 0.7898221 0.004539 0.001826 0.001374 13.8277673 -7.5145777 6.3594046 65.1026428 -18.1305501 19.3836310 11.4177998
2.0373546 -0.1330928 0.8694024 0.002998 0.001339 0.001802 12.1392706 -5.1558412 8.6181396 62.1292521 -13.4557157 28.3765013 11.7668407
1.9937153 -0.0868513 0.9404962 0.001180 0.000811 0.001884 8.6487939 -2.6290269 8.6468062 56.7611364 -8.7224329 36.0045138 12.6063016
1.9338639 -0.0419767 1.0006254 -0.000492 0.000274 0.001430 4.9505456 -0.8336995 6.7231305 49.7742786 -4.1363356 41.9815146 13.7261700
1.8612941 -0.0000000 1.0487728 -0.001841 -0.000000 0.000624 2.1365945 -0.0000000 3.9111595 42.0552578 0.0000026 46.1809618 15.0215933
1.7791936 0.0381060 1.0851163 -0.002734 -0.000210 -0.000428 0.4912074 0.1138284 1.2281799 34.3179335 3.6736778 48.8678188 16.3444665
1.6900409 0.0718366 1.1106000 -0.003315 -0.000179 -0.001504 -0.2280238 -0.1341683 -0.8076159 27.0644390 6.7516409 50.2941405 17.6314711
1.5954480 0.1009771 1.1265323 -0.003589 -0.000205 -0.002482 -0.3900602 -0.4777624 -2.1073784 20.5032381 9.3633713 50.8494236 18.8176544
1.4961678 0.1254193 1.1343013 -0.003778 -0.000169 -0.003255 -0.2871171 -0.7731488 -2.7835618 14.7703333 11.4907707 50.8180317 19.9126088
2.1075341 -0.1385076 0.7089577 0.005298 0.001501 0.000881 22.1974510 -8.5267906 4.8593714 71.6659610 -14.1319853 10.2446351 10.0916559
2.0941085 -0.0921133 0.7949374 0.004198 0.000996 0.001677 21.0345226 -5.5083914 9.3433368 69.9730650 -9.3878707 20.2278599 10.2048146
2.0585254 -0.0452409 0.8743409 0.002655 0.000480 0.002133 16.1170971 -2.2234648 11.1700074 65.1916456 -4.5961721 29.1734836 11.0671627
2.0038216 -0.0000000 0.9435572 0.000995 -0.000000 0.002049 10.0889619 -0.0000002 9.9590080 58.1374797 0.0000021 36.5321476 12.1834520
1.9338639 0.0419766 1.0006254 -0.000492 -0.000274 0.001430 4.9505441 0.8336990 6.7231284 49.7742768 4.1363309 41.9815127 13.7261590
1.8524625 0.0796799 1.0451238 -0.001667 -0.000427 0.000457 1.7075018 0.6712797 3.1739826 41.0959421 7.7349530 45.6106210 15.1461392
1.7627615 0.1126345 1.0777222 -0.002431 -0.000408 -0.000726 0.0697422 0.0503494 0.1806806 32.7764497 10.6966322 47.7211163 16.7124338
1.6669858 0.1407027 1.0996978 -0.002923 -0.000374 -0.001859 -0.4511501 -0.5683684 -1.7057305 25.2645688 13.1391049 48.7528767 17.9803655
1.5664304 0.1638865 1.1125442 -0.003211 -0.000296 -0.002845 -0.4674024 -1.0760427 -2.8398798 18.6466886 15.0485402 49.0071422 19.3154722
2.1303425 -0.0471704 0.7107897 0.005074 0.000518 0.001012 28.8780294 -3.6113246 6.1809094 75.1609240 -4.8023677 10.5181778 9.2426095
2.1053475 -0.0000000 0.7967298 0.004036 -0.000000 0.001837 23.9734881 -0.0000003 10.5267240 71.6659893 0.0000018 20.4860947 9.8706245
2.0585254 0.0452409 0.8743409 0.002655 -0.000480 0.002133 16.1170991 2.2234646 11.1700087 65.1916493 4.5961688 29.1734833 11.0671532
1.9937153 0.0868513 0.9404962 0.001180 -0.000811 0.001884 8.6487932 2.6290264 8.6468056 56.7611354 8.7224304 36.0045137 12.6063111
1.9151502 0.1238089 0.9938485 -0.000045 -0.000967 0.001058 3.4257219 1.7836002 4.7829543 47.4702860 12.2160631 40.8649047 14.2525714
1.8266107 0.1556847 1.0345085 -0.001068 -0.000868 -0.000054 0.6146357 0.5082285 1.1970159 38.3438217 14.9942985 43.9277310 15.8948273
1.7309848 0.1824268 1.0635191 -0.001711 -0.000752 -0.001282 -0.4837379 -0.6290826 -1.3479350 29.9261701 17.1965545 45.6352117 17.4038025
1.6301701 0.2041484 1.0823733 -0.002273 -0.000608 -0.002370 -0.6679362 -1.4227218 -2.8311137 22.5347678 18.8705063 46.3568190 18.7748327
2.1303425 0.0471704 0.7107897 0.005074 -0.000518 0.001012 28.8780305 3.6113239 6.1809096 75.1609253 4.8023639 10.5181804 9.2426003
2.0941085 0.0921133 0.7949374 0.004198 -0.000996 0.001677 21.0345211 5.5083904 9.3433362 69.9730627 9.3878687 20.2278592 10.2048232
2.0373546 0.1330928 0.8694024 0.002998 -0.001339 0.001802 12.1392720 5.1558414 8.6181405 62.1292513 13.4557185 28.3765025 11.7668418
1.9643108 0.1690918 0.9316724 0.001712 -0.001414 0.001326 5.3012574 3.3607436 5.5081653 52.8709228 16.8076010 34.5612814 13.3875077
1.8791804 0.1997317 0.9809642 0.000582 -0.001379 0.000398 1.2571526 1.1600005 1.8568169 43.3308361 19.4287802 38.7970242 15.1986547
1.7854759 0.2250431 1.0178026 -0.000355 -0.001169 -0.000773 -0.4729382 -0.6397663 -0.9976625 34.3081799 21.3804518 41.4007377 16.7293634
1.6857400 0.2452350 1.0434895 -0.001086 -0.001002 -0.001913 -0.9082070 -1.8698699 -2.8384992 26.2464594 22.7853839 42.7940074 18.2999829
2.1075341 0.1385076 0.7089577 0.005297 -0.001501 0.000881 22.1974537 8.5267910 4.8593720 71.6659618 14.1319891 10.2446330 10.0916567
2.0616439 0.1787157 0.7898221 0.004539 -0.001826 0.001374 13.8277630 7.5145749 6.3594026 65.1026396 18.1305432 19.3836294 11.4177894
1.9970760 0.2137016 0.8601484 0.003553 -0.002060 0.001251 6.4588513 4.8185014 4.8137921 56.5286660 21.4087769 26.8230431 13.0417781
1.9180204 0.2431335 0.9179990 0.002404 -0.001987 0.000612 1.6851935 1.7212808 1.8691198 47.1205281 23.8387537 32.2934150 14.7610925
1.8284135 0.2671046 0.9630425 0.001387 -0.001789 -0.000408 -0.5696008 -0.8096524 -0.9176676 37.8746653 25.5508203 35.9747010 16.4251694
1.7314273 0.2858906 0.9961234 0.000359 -0.001504 -0.001500 -1.1927181 -2.4460448 -2.8294457 29.4764753 26.6941381 38.2274738 17.9578338
2.0645290 0.2216301 0.7055691 0.005633 -0.002269 0.000640 12.6961266 8.5244593 2.9083479 65.2023591 22.4997050 9.7007180 11.5833652
2.0112167 0.2556567 0.7820475 0.004976 -0.002426 0.000819 6.2999798 5.4662881 3.0719369 57.9808094 25.6299973 18.1123433 12.9013789
1.9410577 0.2840503 0.8475405 0.004030 -0.002451 0.000523 1.5951087 1.8062890 1.2803247 49.3446324 27.9112985 24.7518297 14.5880886
1.8579895 0.3069496 0.9005625 0.002901 -0.002264 -0.000203 -0.7925193 -1.1979266 -0.9656443 40.4412133 29.4514330 29.5534173 16.1221351
1.7656727 0.3246517 0.9411672 0.001884 -0.002039 -0.001190 -1.5318105 -3.2047950 -2.7862219 32.0006386 30.4094287 32.7783815 17.7377553
2.0055516 0.2932492 0.7010518 0.005889 -0.002779 0.000372 4.5902953 4.6385471 1.1262523 56.9038638 29.3216690 8.9277610 13.3894572
1.9469552 0.3207831 0.7723879 0.005273 -0.002871 0.000375 0.8463015 1.0709639 0.4484211 49.6406289 31.5120236 16.4582643 14.7845411
1.8729491 0.3429391 0.8324746 0.004463 -0.002826 -0.000164 -1.2651496 -2.0613813 -1.1236773 41.5246691 32.9506257 22.3250728 16.2576015
1.7873318 0.3600097 0.8802050 0.003354 -0.002568 -0.000989 -1.9227178 -4.1902053 -2.6572092 33.5220495 33.7585770 26.5382869 17.7280398
1.9351581 0.3521730 0.6958220 0.005965 -0.003097 0.000049 -0.3355298 -0.4811317 -0.0903102 47.9735926 34.3598828 8.0620186 15.2352737
1.8727556 0.3737714 0.7614174 0.005294 -0.003025 -0.000255 -1.8486534 -3.2982582 -1.0920532 41.2188563 35.7147408 14.7630792 16.4113384
1.7958979 0.3906289 0.8153887 0.004440 -0.002955 -0.000804 -2.3136958 -5.3554044 -2.3415031 34.0010543 36.5428317 19.8327573 17.8431712
1.8573261 0.3988114 0.6901505 0.005835 -0.003343 -0.000132 -2.4401067 -4.8621241 -0.7374765 39.3767122 37.8859223 7.1294804 17.0114596
1.7915895 0.4155618 0.7491546 0.005168 -0.003188 -0.000620 -2.6567232 -6.6594104 -1.7946552 33.2887380 38.5766105 12.8835361 18.1615912
1.7750129 0.4344729 0.6838914 0.005205 -0.003378 -0.000608 -2.6110145 -7.2455429 -0.9034323 31.7702693 40.2088913 6.3408011 18.5340610
1.7452528 0.4482248 0.6212299 0.004840 -0.003331 0.000000 -3.1004359 -9.9048825 -0.0000008 28.9457646 40.4363082 -0.0000107 19.1449280
1.8259161 0.4184183 0.6212299 0.005615 -0.003304 0.000000 -2.6431902 -6.0504239 -0.0000005 36.2748912 39.2340932 -0.0000062 17.5502665
1.9054601 0.3779424 0.6212299 0.005987 -0.003174 0.000000 -1.5612399 -2.5934777 -0.0000002 44.5078024 36.4515090 -0.0000004 16.0147612
1.9799711 0.3254682 0.6212299 0.006148 -0.002953 0.000000 2.0733360 2.4684809 0.0000002 53.4172448 32.2360135 -0.0000022 14.0800076
2.0454955 0.2601275 0.6212299 0.006013 -0.002524 0.000000 9.0807332 7.4583154 0.0000008 62.3435159 26.2769904 0.0000093 12.2765773
2.0974482 0.1822548 0.6212299 0.005758 -0.001890 0.000000 18.9654877 9.7907791 0.0000014 70.0351898 18.5859000 -0.0000015 10.4771059
2.1311263 0.0940791 0.6212299 0.005508 -0.001036 0.000000 28.2146391 7.0318737 0.0000019 75.1884433 9.5960464 0.0000079 9.3263958
2.1428284 -0.0000000 0.6212299 0.005404 -0.000000 0.000000 32.1594742 -0.0000004 0.0000021 76.9988062 0.0000023 0.0000023 8.7825177
2.1311263 -0.0940791 0.6212299 0.005508 0.001036 0.000000 28.2146374 -7.0318740 0.0000019 75.1884418 -9.5960488 0.0000083 9.3263864
2.0974482 -0.1822548 0.6212299 0.005758 0.001890 0.000000 18.9654844 -9.7907780 0.0000014 70.0351862 -18.5859021 -0.0000029 10.4771180
2.0454955 -0.2601275 0.6212299 0.006013 0.002524 0.000000 9.0807315 -7.4583143 0.0000008 62.3435174 -26.2769862 0.0000097 12.2765741
1.9799711 -0.3254682 0.6212299 0.006148 0.002953 0.000000 2.0733363 -2.4684813 0.0000002 53.4172472 -32.2360147 -0.0000022 14.0800015
1.9054601 -0.3779424 0.6212299 0.005987 0.003174 0.000000 -1.5612403 2.5934785 -0.0000002 44.5077931 -36.4515135 -0.0000026 16.0147745
1.8259160 -0.4184183 0.6212299 0.005615 0.003304 0.000000 -2.6431899 6.0504233 -0.0000005 36.2749036 -39.2340907 -0.0000036 17.5502644
1.7452528 -0.4482248 0.6212299 0.004840 0.003331 0.000000 -3.1004361 9.9048834 -0.0000008 28.9457599 -40.4363074 -0.0000092 19.1449177
1.6891151 -0.4612498 0.5670577 0.004690 0.003671 0.000436 -2.9340933 11.5764803 1.1067933 24.6332078 -40.6986870 -4.8392484 19.9370811
1.7051235 -0.4478491 0.5080542 0.004695 0.003368 0.000793 -2.4142381 8.6761879 1.8988337 26.3064233 -40.5523040 -11.0160042 19.4880682
1.7122540 -0.4282638 0.4465686 0.004412 0.003089 0.001191 -2.2729555 7.5871574 2.7049393 26.9313902 -38.9769340 -17.1951806 19.3322736
1.7087150 -0.4028466 0.3852422 0.003337 0.002782 0.001549 -1.9985432 6.3283398 3.2523269 26.9997936 -36.9106315 -23.4507923 19.0337253
1.6936572 -0.3722474 0.3263415 0.002296 0.002330 0.001854 -1.7115559 5.2636340 3.6638154 26.0843217 -34.1444515 -29.3666611 19.0730861
1.6669889 -0.3374800 0.2719398 0.000885 0.001778 0.002182 -1.3617635 4.1791089 3.8028358 24.4566929 -30.9420807 -34.7931323 19.0271054
1.6292695 -0.2997998 0.2237119 -0.000401 0.001311 0.002526 -1.0303430 3.2614242 3.8023423 22.0986291 -27.4592459 -39.5026111 19.3058063
1.5815509 -0.2605458 0.1828039 -0.001711 0.000864 0.002885 -0.7263914 2.4786560 3.6667072 19.2992581 -23.7983153 -43.4053321 19.4925513
1.5251783 -0.2209828 0.1497898 -0.002649 0.000566 0.003230 -0.4749724 1.8690796 3.5049226 16.1476039 -20.1582157 -46.4811435 19.9799801
1.4615982 -0.1821916 0.1247230 -0.003475 0.000315 0.003538 -0.2638583 1.3592368 3.2562992 12.9695270 -16.5909207 -48.8184801 20.2970981
1.3922133 -0.1450184 0.1072514 -0.003927 0.000189 0.003746 -0.1041295 1.0002507 3.1185264 9.7975809 -13.2069267 -50.4184564 20.8816541
1.3183087 -0.1100788 0.0967427 -0.004300 0.000133 0.003926 0.0231600 0.6771634 2.8426547 6.8593060 -10.0587475 -51.5752986 21.2393690
1.2410809 -0.0778011 0.0923963 -0.004457 0.000118 0.004030 0.1098217 0.4151280 2.4947358 4.1285077 -7.1740480 -52.4628837 21.8305097
1.1617495 -0.0484761 0.0932984 -0.004768 -0.000035 0.002687 0.3519726 0.4871635 4.7215994 1.9589191 -4.2339084 -50.4223499 22.1327575
1.0823051 -0.0224618 0.0984086 -0.004817 0.000095 0.003594 0.4548632 0.2059671 4.5304394 -0.3253228 -2.0427990 -52.4841954 22.6961347
1.7750129 0.4344729 0.5585683 0.005205 -0.003378 0.000609 -2.6110154 -7.2455455 0.9034314 31.7702617 40.2088858 -6.3407884 18.5340467
1.7915895 0.4155618 0.4933052 0.005168 -0.003188 0.000621 -2.6567231 -6.6594104 1.7946540 33.2887441 38.5766112 -12.8835271 18.1615963
1.7958979 0.3906289 0.4270711 0.004439 -0.002955 0.000804 -2.3136962 -5.3554053 2.3415025 34.0010661 36.5428193 -19.8327553 17.8431513
1.7873318 0.3600097 0.3622547 0.003354 -0.002568 0.000989 -1.9227186 -4.1902072 2.6572095 33.5220568 33.7585761 -26.5382778 17.7280481
1.7656727 0.3246517 0.3012925 0.001884 -0.002039 0.001190 -1.5318112 -3.2047965 2.7862225 32.0006502 30.4094166 -32.7783768 17.7377328
1.7314273 0.2858907 0.2463363 0.000358 -0.001504 0.001500 -1.1927184 -2.4460454 2.8294458 29.4764979 26.6941368 -38.2274633 17.9578385
1.6857400 0.2452350 0.1989702 -0.001086 -0.001001 0.001913 -0.9082072 -1.8698704 2.8384995 26.2464583 22.7853710 -42.7940111 18.2999703
1.6301701 0.2041484 0.1600864 -0.002273 -0.000608 0.002370 -0.6679366 -1.4227227 2.8311151 22.5347963 18.8705150 -46.3568038 18.7748316
1.5664304 0.1638865 0.1299155 -0.003212 -0.000296 0.002845 -0.4674022 -1.0760423 2.8398782 18.6466927 15.0485136 -49.0071532 19.3154613
1.4961678 0.1254193 0.1081583 -0.003779 -0.000169 0.003255 -0.2871170 -0.7731487 2.7835608 14.7703588 11.4907855 -50.8180236 19.9126188
1.4208179 0.0894280 0.0941616 -0.004171 -0.000051 0.003609 -0.1366647 -0.5277543 2.7385260 11.1112956 8.1473935 -51.9789478 20.5048811
1.3415274 0.0563540 0.0870718 -0.004364 -0.000045 0.003811 -0.0097490 -0.3121687 2.6091790 7.7421581 5.1418560 -52.6195023 21.0936105
1.2590849 0.0264628 0.0859644 -0.004504 0.000012 0.003741 0.0951536 -0.1472217 2.6334697 4.7257010 2.3908342 -52.7473274 21.6628611
1.1736105 -0.0000000 0.0899412 -0.004587 -0.000000 0.004337 0.0405584 0.0000000 0.5761400 1.9650187 0.0000881 -54.5093372 22.1732850
1.8573261 0.3988114 0.5523093 0.005835 -0.003343 0.000132 -2.4401062 -4.8621230 0.7374755 39.3767143 37.8859330 -7.1294493 17.0114694
1.8727556 0.3737714 0.4810423 0.005294 -0.003025 0.000255 -1.8486535 -3.2982584 1.0920527 41.2188479 35.7147410 -14.7630971 16.4113396
1.8729492 0.3429391 0.4099852 0.004462 -0.002826 0.000164 -1.2651501 -2.0613821 1.1236774 41.5246651 32.9506488 -22.3250429 16.2576115
1.8579895 0.3069496 0.3418973 0.002901 -0.002264 0.000203 -0.7925192 -1.1979265 0.9656440 40.4412085 29.4514289 -29.5534311 16.1221347
1.8284135 0.2671046 0.2794172 0.001386 -0.001789 0.000408 -0.5696007 -0.8096523 0.9176672 37.8746539 25.5508488 -35.9746887 16.4251851
1.7854759 0.2250431 0.2246571 -0.000355 -0.001169 0.000773 -0.4729382 -0.6397663 0.9976623 34.3081756 21.3804499 -41.4007428 16.7293564
1.7309848 0.1824269 0.1789406 -0.001711 -0.000752 0.001282 -0.4837380 -0.6290827 1.3479350 29.9261628 17.1965766 -45.6352078 17.4038178
1.6669858 0.1407027 0.1427619 -0.002923 -0.000374 0.001859 -0.4511501 -0.5683684 1.7057303 25.2645555 13.1391023 -48.7528804 17.9803619
1.5954480 0.1009771 0.1159274 -0.003590 -0.000205 0.002482 -0.3900602 -0.4777624 2.1073779 20.5032297 9.3634058 -50.8494214 18.8176624
1.5180335 0.0640047 0.0977707 -0.004134 -0.000046 0.003036 -0.2713891 -0.3213426 2.3148859 16.0234543 5.8750181 -52.1416957 19.4534559
1.4359414 0.0302510 0.0873759 -0.004265 -0.000066 0.003486 -0.1459842 -0.1599338 2.4864490 11.8101214 2.7884700 -52.7902513 20.3051102
1.3497499 -0.0000000 0.0837494 -0.004510 -0.000000 0.003738 -0.0196366 0.0000000 2.4606917 8.1008699 0.0000064 -52.9874795 20.8667007
1.2590849 -0.0264628 0.0859644 -0.004504 -0.000012 0.003741 0.0951455 0.1472091 2.6332446 4.7256979 -2.3908972 -52.7475482 21.6629119
1.9351581 0.3521730 0.5466378 0.005965 -0.003097 -0.000049 -0.3355318 -0.4811347 0.0903106 47.9735951 34.3598735 -8.0620036 15.2352638
1.9469552 0.3207831 0.4700718 0.005273 -0.002871 -0.000375 0.8463015 1.0709638 -0.4484208 49.6406382 31.5120207 -16.4582523 14.7845421
1.9410577 0.2840503 0.3949192 0.004030 -0.002451 -0.000523 1.5951083 1.8062886 -1.2803241 49.3446350 27.9112866 -24.7518309 14.5880794
1.9180204 0.2431335 0.3244607 0.002404 -0.001987 -0.000612 1.6851932 1.7212805 -1.8691191 47.1205455 23.8387565 -32.2933936 14.7610907
1.8791804 0.1997318 0.2614955 0.000582 -0.001379 -0.000398 1.2571532 1.1600011 -1.8568174 43.3308405 19.4287616 -38.7970293 15.1986461
1.8266107 0.1556847 0.2079512 -0.001068 -0.000868 0.000054 0.6146353 0.5082282 -1.1970149 38.3438401 14.9943038 -43.9277161 15.8948305
1.7627616 0.1126345 0.1647375 -0.002431 -0.000408 0.000726 0.0697423 0.0503494 -0.1806806 32.7764520 10.6966179 -47.7211179 16.7124218
1.6900410 0.0718366 0.1318597 -0.003315 -0.000179 0.001504 -0.2280240 -0.1341684 0.8076164 27.0644697 6.7516333 -50.2941308 17.6314753
1.6104833 0.0341266 0.1086855 -0.003872 -0.000023 0.002281 -0.3223625 -0.1243124 1.6468891 21.5337406 3.1542150 -51.8344144 18.5519580
1.5255411 -0.0000000 0.0942260 -0.004162 -0.000000 0.002958 -0.2645451 0.0000000 2.1667503 16.4340882 0.0000149 -52.5896393 19.4474086
1.4359414 -0.0302510 0.0873759 -0.004264 0.000066 0.003486 -0.1459846 0.1599343 2.4864560 11.8100937 -2.7884820 -52.7902417 20.3051106
1.3415274 -0.0563540 0.0870718 -0.004364 0.000045 0.003811 -0.0097492 0.3121751 2.6092321 7.7421621 -5.1418324 -52.6194548 21.0935877
2.0055516 0.2932492 0.5414079 0.005889 -0.002779 -0.000372 4.5902962 4.6385482 -1.1262516 56.9038592 29.3216823 -8.9277517 13.3894644
2.0112167 0.2556567 0.4604122 0.004976 -0.002426 -0.000818 6.2999810 5.4662892 -3.0719363 57.9808083 25.6300008 -18.1123432 12.9013779
1.9970761 0.2137016 0.3823113 0.003553 -0.002060 -0.001251 6.4588515 4.8185018 -4.8137910 56.5286631 21.4087925 -26.8230347 13.0417857
1.9643108 0.1690918 0.3107873 0.001712 -0.001414 -0.001326 5.3012584 3.3607443 -5.5081653 52.8709152 16.8076012 -34.5612882 13.3875081
1.9151502 0.1238089 0.2486112 -0.000045 -0.000967 -0.001058 3.4257220 1.7836004 -4.7829538 47.4702877 12.2160864 -40.8648961 14.2525751
1.8524626 0.0796799 0.1973359 -0.001667 -0.000427 -0.000457 1.7075017 0.6712796 -3.1739819 41.0959324 7.7349441 -45.6106246 15.1461379
1.7791936 0.0381060 0.1573434 -0.002734 -0.000210 0.000428 0.4912079 0.1138285 -1.2281810 34.3179270 3.6737057 -48.8678227 16.3444765
1.6979031 -0.0000000 0.1281326 -0.003553 -0.000000 0.001348 -0.1173259 0.0000000 0.4067862 27.7232173 0.0000037 -50.8351805 17.3551912
1.6104833 -0.0341266 0.1086855 -0.003872 0.000023 0.002281 -0.3223624 0.1243124 1.6468888 21.5337460 -3.1542264 -51.8344150 18.5519858
1.5180335 -0.0640047 0.0977707 -0.004134 0.000046 0.003036 -0.2713889 0.3213425 2.3148846 16.0234595 -5.8750352 -52.1416944 19.4534439
1.4208179 -0.0894280 0.0941616 -0.004171 0.000051 0.003609 -0.1366638 0.5277510 2.7385087 11.1113257 -8.1473874 -51.9789669 20.5048948
2.0645290 0.2216301 0.5368906 0.005633 -0.002269 -0.000640 12.6961296 8.5244614 -2.9083465 65.2023671 22.4996946 -9.7007144 11.5833600
2.0616439 0.1787157 0.4526377 0.004539 -0.001826 -0.001374 13.8277696 7.5145786 -6.3594033 65.1026514 18.1305450 -19.3836169 11.4177889
2.0373547 0.1330928 0.3730573 0.002998 -0.001339 -0.001802 12.1392706 5.1558409 -8.6181375 62.1292534 13.4557052 -28.3764948 11.7668351
1.9937154 0.0868513 0.3019635 0.001180 -0.000811 -0.001884 8.6487959 2.6290273 -8.6468066 56.7611513 8.7224276 -36.0044987 12.6063108
1.9338640 0.0419767 0.2418343 -0.000492 -0.000274 -0.001430 4.9505470 0.8336996 -6.7231314 49.7742751 4.1363174 -41.9815183 13.7261581
1.8612941 -0.0000000 0.1936868 -0.001841 -0.000000 -0.000624 2.1365956 -0.0000000 -3.9111610 42.0552898 0.0000047 -46.1809440 15.0215865
1.7791936 -0.0381060 0.1573434 -0.002734 0.000210 0.000428 0.4912085 -0.1138287 -1.2281824 34.3179146 -3.6737119 -48.8678262 16.3444819
1.6900410 -0.0718367 0.1318597 -0.003315 0.000179 0.001504 -0.2280239 0.1341684 0.8076161 27.0644736 -6.7516328 -50.2941310 17.6314603