# volRat = 0.650000
# viscRat = 5.000000
# alpha = 1.000000
# shRate = 2.250000
# tnum = 6100
# time = 6.513000
VARIABLES = X, Y, Z, U, V, W, F_B0, F_B1, F_B2, F_0, F_1, F_2, T
ZONE N=2562 E=5120 F=FEPOINT ET=TRIANGLE
1.6583290 0.4674464 0.6212294 0.002987 -0.000577 0.000001 3.1642453 14.8237696 0.0000258 23.7057965 51.5822933 0.0006315 20.0127516
-1.6583290 0.4674464 0.6212294 -0.002987 -0.000577 0.000001 -3.1642349 14.8237705 0.0000263 -23.7057877 51.5822939 0.0006319 20.0127521
1.6583290 -0.4674457 0.6212294 0.002999 0.000577 0.000000 3.1641822 -14.8235307 0.0000263 23.7008679 -51.5824307 0.0010496 20.0101404
-1.6583290 -0.4674457 0.6212294 -0.002999 0.000577 -0.000000 -3.1641918 -14.8235267 0.0000258 -23.7008761 -51.5824274 0.0010492 20.0101408
0.9847164 0.0000000 1.1304232 -0.001706 -0.000014 -0.000676 -1.9941749 -0.0000552 17.9159279 -2.5073028 0.0075001 59.9778304 22.6218557
0.9847160 0.0000000 0.1120330 -0.001800 -0.000018 -0.000876 -1.7354764 -0.0000559 -15.5917464 -2.2983742 0.0052677 -57.7000210 22.6217274
-0.9847164 0.0000000 1.1304232 0.001706 -0.000014 -0.000676 1.9941750 0.0000025 17.9159292 2.5073032 0.0075331 59.9778315 22.6218557
-0.9847160 0.0000000 0.1120330 0.001800 -0.000018 -0.000876 1.7354678 -0.0000449 -15.5916688 2.2983659 0.0052742 -57.6999455 22.6217277
-0.0000000 0.3404190 0.8366126 -0.000000 -0.001586 -0.000417 0.0000197 -71.2717256 -40.7361343 0.0000189 -18.2000686 -6.3329423 25.6712449
-0.0000000 -0.3404190 0.8366127 -0.000000 0.000517 0.000311 0.0000027 81.7201235 -46.7133399 0.0000026 28.4899069 -12.2546203 25.6304003
-0.0000000 0.3404209 0.4058458 -0.000000 0.000019 -0.000441 0.0000004 -73.6426955 42.0900810 0.0000003 -20.4934994 7.6268017 25.6952158
-0.0000000 -0.3404207 0.4058458 -0.000000 -0.000712 -0.000968 0.0000030 83.5253612 47.7443722 0.0000028 30.2347599 13.2424326 25.6497362
1.6810272 0.4606624 0.6755820 0.004243 -0.000906 -0.000137 -3.0409364 -12.9136558 -1.2407780 22.9228806 39.0778217 4.7276954 19.8277435
1.6975290 0.4473707 0.7347586 0.004081 -0.000940 -0.000171 -2.3471977 -9.0416317 -1.9865604 24.8080154 40.0334347 10.9602163 19.3968782
1.7050250 0.4277179 0.7963661 0.003679 -0.000856 -0.000243 -2.2242810 -7.9364019 -2.8403091 25.4448796 38.4779475 17.1119907 19.2214665
1.7016790 0.4020562 0.8577219 0.002611 -0.000586 -0.000182 -1.9734793 -6.6708005 -3.4420445 25.5241816 36.3903550 23.2999274 18.9269497
1.6865995 0.3710653 0.9165212 0.001631 -0.000297 -0.000145 -1.6931741 -5.5603349 -3.8876135 24.6370754 33.5944337 29.1438669 18.9460011
1.6596590 0.3358143 0.9706598 0.000356 0.000090 -0.000104 -1.3447656 -4.4173742 -4.0407887 23.0592490 30.3665157 34.4718559 18.8976674
1.6213913 0.2976322 1.0184482 -0.000716 0.000394 -0.000062 -1.0110721 -3.4437263 -4.0405365 20.7692993 26.8525104 39.0518195 19.1489264
1.5728352 0.2579380 1.0587461 -0.001727 0.000654 -0.000047 -0.7051759 -2.6149102 -3.8985921 18.0502762 23.1774425 42.8062699 19.3391399
1.5153377 0.2180708 1.0910086 -0.002315 0.000766 -0.000056 -0.4516638 -1.9680315 -3.7257643 15.0110378 19.5428675 45.7188295 19.8015335
1.4503664 0.1791684 1.1152327 -0.002744 0.000794 -0.000078 -0.2405873 -1.4307106 -3.4668972 11.9744880 16.0219449 47.8991171 20.1164118
1.3793692 0.1421077 1.1318382 -0.002746 0.000705 -0.000104 -0.0805141 -1.0467819 -3.3076910 8.9672430 12.7007617 49.3759146 20.6842994
1.3037069 0.1075045 1.1415376 -0.002640 0.000557 -0.000122 0.0446440 -0.7207372 -3.0724741 6.2205818 9.6308606 50.3854937 21.0455259
1.2246837 0.0757554 1.1452185 -0.002313 0.000393 -0.000126 0.1445520 -0.4971056 -3.0390141 3.7197808 6.7994020 50.8961816 21.6045945
1.1436554 0.0470925 1.1438786 -0.002028 0.000230 -0.000127 0.2189606 -0.2954831 -2.9178541 1.6107049 4.2352663 51.1629966 21.9214553
1.0627790 0.0217921 1.1386295 -0.001661 0.000022 -0.000111 0.5447171 -0.2482414 -5.5783728 -0.2109718 1.8799000 50.3744126 22.4530388
1.7695580 -0.4347527 0.6841382 0.004040 0.001237 -0.000305 -2.7153820 7.9736878 -0.9975316 30.1820268 -39.6109039 6.2991820 18.4376506
1.7866211 -0.4159214 0.7496126 0.003796 0.001327 -0.000009 -2.6750281 7.0725574 -1.9112468 31.8201594 -38.3293136 12.8744220 18.0640266
1.7911881 -0.3908658 0.8159887 0.003030 0.001188 0.000133 -2.3710095 5.7783953 -2.5328980 32.5202711 -36.2731274 19.8021632 17.7428966
1.7826454 -0.3599380 0.8808338 0.001954 0.000907 0.000279 -1.9878256 4.5590210 -2.8989579 32.0588125 -33.4623870 26.4720048 17.6172693
1.7607464 -0.3241339 0.9416693 0.000589 0.000509 0.000427 -1.5905072 3.5050756 -3.0571861 30.5559322 -30.0704513 32.6363763 17.6146106
1.7259733 -0.2848636 0.9963134 -0.000719 0.000097 0.000491 -1.2371079 2.6794797 -3.1123347 28.0522942 -26.3027018 37.9725858 17.8244690
1.6794563 -0.2437227 1.0431743 -0.001871 -0.000278 0.000478 -0.9363109 2.0462629 -3.1231120 24.8609736 -22.3477586 42.3827029 18.1542759
1.6227516 -0.2022598 1.0813782 -0.002703 -0.000505 0.000423 -0.6796630 1.5503236 -3.1067737 21.2186448 -18.4190290 45.7629164 18.6148446
1.5575822 -0.1617996 1.1107364 -0.003216 -0.000642 0.000312 -0.4646560 1.1635821 -3.0984757 17.4281039 -14.6121447 48.2298699 19.1499942
1.4856248 -0.1233558 1.1316083 -0.003318 -0.000576 0.000204 -0.2752584 0.8319200 -3.0284696 13.6836450 -11.0987836 49.8656557 19.7377111
1.4083732 -0.0876214 1.1447202 -0.003229 -0.000492 0.000090 -0.1191328 0.5655973 -2.9741185 10.1992698 -7.8314725 50.8737581 20.3138337
1.3270702 -0.0550165 1.1510074 -0.002888 -0.000303 0.000003 0.0099181 0.3336637 -2.8321534 7.0220924 -4.9247651 51.4136934 20.8982904
1.2426429 -0.0257544 1.1514804 -0.002495 -0.000170 -0.000067 0.1072320 0.1456628 -2.6508803 4.2306574 -2.2936623 51.6810341 21.4538088
1.1553942 0.0000000 1.1471281 -0.002046 0.000007 -0.000075 0.1631617 0.0000017 -2.2836350 1.8122857 -0.0050756 51.8405761 21.9423883
1.8542265 -0.3998315 0.6904524 0.003951 0.001796 0.000162 -2.5636639 5.3406187 -0.8116706 37.9713855 -37.8299604 7.1565782 16.9203267
1.8701166 -0.3748092 0.7619906 0.003235 0.001702 0.000300 -2.0123111 3.7448204 -1.2418610 39.8490006 -35.7075848 14.8187586 16.3252065
1.8704544 -0.3437734 0.8332318 0.002340 0.001603 0.000683 -1.4397580 2.4443971 -1.3344026 40.1757177 -32.9245937 22.3987492 16.1556324
1.8553308 -0.3074001 0.9013602 0.000855 0.001139 0.000939 -0.9574769 1.5082928 -1.2178825 39.0821757 -29.3787627 29.6118217 16.0191080
1.8252740 -0.2670644 0.9636894 -0.000480 0.000726 0.001080 -0.7113872 1.0553622 -1.1989095 36.4970499 -25.3941683 35.9534163 16.3042023
1.7815350 -0.2244995 1.0180831 -0.001931 0.000195 0.001121 -0.5858545 0.8296627 -1.2980688 32.9125001 -21.1530492 41.2388811 16.6040024
1.7259264 -0.1814633 1.0632251 -0.002906 -0.000118 0.001033 -0.5631865 0.7707922 -1.6593545 28.5280990 -16.9159664 45.2811202 17.2648408
1.6605040 -0.1394839 1.0986577 -0.003649 -0.000351 0.000872 -0.4986432 0.6669079 -2.0144552 23.9029602 -12.8494944 48.1869013 17.8400875
1.5872574 -0.0997226 1.1246316 -0.003841 -0.000352 0.000646 -0.4089594 0.5396928 -2.4010250 19.2348683 -9.1003979 50.0667256 18.6567833
1.5078900 -0.0629563 1.1418821 -0.003853 -0.000322 0.000420 -0.2701591 0.3545498 -2.5820147 14.8830036 -5.6771736 51.1782455 19.2967566
1.4236781 -0.0296370 1.1514004 -0.003449 -0.000122 0.000213 -0.1318437 0.1727062 -2.7207782 10.8524177 -2.6784563 51.6814290 20.1286163
1.3353265 0.0000001 1.1542618 -0.003118 -0.000004 0.000049 -0.0011698 0.0000016 -2.6466712 7.3603259 0.0027713 51.8141053 20.6810777
1.2426428 0.0257545 1.1514805 -0.002495 0.000166 -0.000064 0.1073402 -0.1458064 -2.6535533 4.2321926 2.2951312 51.6786358 21.4568744
1.9342053 -0.3537529 0.6961896 0.003327 0.002132 0.000294 -0.5821377 0.8652240 -0.1625494 46.7921550 -34.5676477 8.1326242 15.1390810
1.9463858 -0.3222711 0.7730995 0.002479 0.002062 0.000839 0.5902151 -0.7729369 0.3238218 48.5212348 -31.7384149 16.6186625 14.6788611
1.9404776 -0.2852283 0.8484877 0.001233 0.001720 0.001229 1.3500424 -1.5814779 1.1216089 48.2252041 -28.0867455 24.9708264 14.4743877
1.9170487 -0.2438534 0.9189972 -0.000251 0.001290 0.001617 1.4595929 -1.5433900 1.6774517 45.9473495 -23.9150194 32.5017307 14.6378544
1.8774535 -0.1999456 0.9817782 -0.001767 0.000715 0.001761 1.0566964 -1.0114130 1.6215689 42.0646500 -19.4021322 38.9088902 15.0699097
1.8237908 -0.1554530 1.0348933 -0.003015 0.000258 0.001722 0.4484540 -0.3860253 0.9116621 36.9937734 -14.8805906 43.8599720 15.7601411
1.7585374 -0.1121115 1.0774636 -0.003883 -0.000084 0.001508 -0.0431167 0.0325911 -0.1174508 31.3992767 -10.5542985 47.4410973 16.5700035
1.6841253 -0.0712412 1.1095411 -0.004238 -0.000176 0.001183 -0.3021588 0.1878605 -1.1377879 25.6823414 -6.6094961 49.7458999 17.4865671
1.6026192 -0.0337080 1.1318287 -0.004239 -0.000163 0.000828 -0.3539621 0.1464418 -1.9563864 20.2349656 -3.0664784 51.0546556 18.3978056
1.5155275 0.0000001 1.1453887 -0.003948 0.000002 0.000494 -0.2670257 0.0000013 -2.4413749 15.2759470 -0.0019448 51.6195171 19.2781900
1.4236781 0.0296372 1.1514005 -0.003446 0.000121 0.000213 -0.1318493 -0.1727104 -2.7208925 10.8505610 2.6778415 51.6810666 20.1252980
1.3270701 0.0550166 1.1510074 -0.002890 0.000308 0.000002 0.0099154 -0.3335705 -2.8313915 7.0226124 4.9188500 51.4153985 20.8981657
2.0065424 -0.2951151 0.7015016 0.002492 0.002309 0.000561 4.3418411 -4.5196725 1.0973490 56.0898225 -29.7383445 9.0651646 13.2719531
2.0124496 -0.2572850 0.7829203 0.001467 0.002057 0.001191 6.0896298 -5.4380169 3.0554244 57.2278778 -26.0121181 18.3946082 12.7815619
1.9980771 -0.2149083 0.8613017 0.000128 0.001702 0.001836 6.2602972 -4.8076930 4.8025298 55.7137394 -21.6783914 27.1960250 12.9071602
1.9646379 -0.1697969 0.9328706 -0.001433 0.001057 0.002200 5.0915138 -3.3270406 5.4547733 51.9108637 -16.9506161 34.9238625 13.2575250
1.9144154 -0.1240526 0.9948133 -0.002779 0.000608 0.002318 3.2088457 -1.7265022 4.6351496 46.3317404 -12.2394777 41.0934543 14.1153842
1.8503367 -0.0796089 1.0455921 -0.003865 0.000146 0.002161 1.5103715 -0.6161982 2.9204239 39.7964933 -7.6974283 45.6160831 15.0171094
1.7753931 -0.0379417 1.0848829 -0.004347 0.000047 0.001768 0.3455607 -0.0836404 0.9060807 32.9328236 -3.6261572 48.5977514 16.2069565
1.6921768 0.0000001 1.1132634 -0.004554 -0.000001 0.001324 -0.2007473 0.0000003 -0.7388061 26.3419911 0.0007571 50.3022019 17.2162835
1.6026192 0.0337082 1.1318288 -0.004244 0.000160 0.000828 -0.3539385 -0.1464302 -1.9562563 20.2372920 3.0671644 51.0547342 18.3999072
1.5078900 0.0629565 1.1418822 -0.003851 0.000316 0.000420 -0.2701630 -0.3545523 -2.5820523 14.8824569 5.6807074 51.1776593 19.2975723
1.4083732 0.0876216 1.1447203 -0.003232 0.000487 0.000090 -0.1191386 -0.5656213 -2.9742621 10.2011496 7.8335167 50.8734353 20.3168030
2.0672022 -0.2234149 0.7061109 0.001521 0.002146 0.000768 12.6894124 -8.7393096 2.9795116 64.8490248 -22.9861627 9.9085262 11.4322516
2.0643338 -0.1801130 0.7908574 0.000410 0.001724 0.001644 13.8666634 -7.7275440 6.5346885 64.7458342 -18.5089419 19.7856310 11.2562785
2.0395161 -0.1339955 0.8707388 -0.000911 0.001205 0.002283 12.1108946 -5.2788739 8.8191023 61.6075917 -13.6892181 28.8799896 11.6070703
1.9948748 -0.0872828 0.9418458 -0.002306 0.000665 0.002670 8.5079096 -2.6591911 8.7460980 55.9732735 -8.8233359 36.4753596 12.4527582
1.9336449 -0.0420793 1.0016806 -0.003413 0.000163 0.002625 4.7397608 -0.8233944 6.6461040 48.7083503 -4.1526107 42.2789432 13.5813967
1.8594041 0.0000002 1.0492733 -0.004107 0.000000 0.002293 1.9468115 -0.0000014 3.7028573 40.7994025 -0.0006057 46.2383884 14.8813343
1.7753931 0.0379420 1.0848830 -0.004342 -0.000049 0.001767 0.3455290 0.0836320 0.9059975 32.9312269 3.6260260 48.5978029 16.2051660
1.6841253 0.0712415 1.1095411 -0.004238 0.000177 0.001183 -0.3021594 -0.1878599 -1.1377903 25.6822628 6.6075639 49.7463047 17.4863523
1.5872574 0.0997228 1.1246317 -0.003837 0.000353 0.000646 -0.4089763 -0.5397127 -2.4011243 19.2328732 9.0988035 50.0669193 18.6543241
1.4856248 0.1233560 1.1316085 -0.003320 0.000579 0.000203 -0.2752459 -0.8318793 -3.0283334 13.6845422 11.0950885 49.8669996 19.7364526
2.1114922 -0.1398046 0.7095832 0.000605 0.001537 0.000977 22.6493879 -8.9004852 5.0664463 71.7351264 -14.5100139 10.5054827 9.9016246
2.0977704 -0.0929238 0.7960975 -0.000366 0.001003 0.001884 21.4161171 -5.7391658 9.7242536 69.9293647 -9.6217475 20.7128595 10.0215783
2.0613098 -0.0455757 0.8757872 -0.001527 0.000450 0.002557 16.2521349 -2.2976060 11.5338485 64.8482850 -4.6869390 29.7511479 10.8900939
2.0052696 0.0000002 0.9449637 -0.002615 0.000000 0.002803 9.9876472 -0.0000038 10.1281786 57.4208332 -0.0000416 37.0456210 12.0328203
1.9336449 0.0420797 1.0016806 -0.003417 -0.000165 0.002627 4.7397960 0.8233955 6.6461536 48.7098306 4.1529861 42.2783651 13.5824134
1.8503367 0.0796093 1.0455921 -0.003864 -0.000148 0.002161 1.5103787 0.6161988 2.9204381 39.7963140 7.6982888 45.6160360 15.0175634
1.7585375 0.1121118 1.0774637 -0.003887 0.000081 0.001509 -0.0430875 -0.0325690 -0.1173714 31.4009030 10.5550999 47.4407789 16.5716383
1.6605040 0.1394842 1.0986578 -0.003649 0.000347 0.000872 -0.4986408 -0.6669028 -2.0144458 23.9030775 12.8514189 48.1861634 17.8408374
1.5575822 0.1617999 1.1107366 -0.003219 0.000636 0.000314 -0.4646495 -1.1635628 -3.0984329 17.4293689 14.6145769 48.2290613 19.1527208
2.1350089 -0.0476462 0.7114661 0.000055 0.000551 0.001073 29.7290528 -3.7983259 6.4919971 75.4780398 -4.9429170 10.8113500 9.0234747
2.1093538 0.0000003 0.7979371 -0.000687 -0.000001 0.002025 24.5198084 -0.0000056 10.9972950 71.7342940 -0.0000767 20.9964237 9.6671364
2.0613098 0.0455761 0.8757872 -0.001525 -0.000452 0.002555 16.2521101 2.2975931 11.5338314 64.8475556 4.6870274 29.7516068 10.8895253
1.9948748 0.0872832 0.9418459 -0.002305 -0.000666 0.002669 8.5079076 2.6591838 8.7460966 55.9730870 8.8230287 36.4755853 12.4525764
1.9144154 0.1240531 0.9948133 -0.002776 -0.000609 0.002316 3.2088157 1.7264825 4.6351068 46.3304412 12.2388583 41.0940158 14.1141752
1.8237908 0.1554534 1.0348934 -0.003016 -0.000258 0.001722 0.4484494 0.3860207 0.9116530 36.9941179 14.8795302 43.8602548 15.7594671
1.7259264 0.1814637 1.0632252 -0.002901 0.000118 0.001032 -0.5632078 -0.7708199 -1.6594176 28.5261758 16.9147776 45.2817986 17.2631091
1.6227516 0.2022601 1.0813783 -0.002705 0.000507 0.000421 -0.6796589 -1.5503112 -3.1067555 21.2191873 18.4166129 45.7642429 18.6135395
2.1350089 0.0476467 0.7114661 0.000054 -0.000553 0.001076 29.7290649 3.7983158 6.4919999 75.4783250 4.9430786 10.8105424 9.0237895
2.0977704 0.0929243 0.7960975 -0.000367 -0.001002 0.001883 21.4161342 5.7391604 9.7242620 69.9294498 9.6215889 20.7130010 10.0217110
2.0395161 0.1339960 0.8707389 -0.000913 -0.001207 0.002286 12.1109269 5.2788806 8.8191268 61.6083338 13.6894479 28.8793132 11.6076087
1.9646379 0.1697974 0.9328707 -0.001434 -0.001057 0.002201 5.0915319 3.3270483 5.4547935 51.9112719 16.9508593 34.9235602 13.2580776
1.8774535 0.1999461 0.9817784 -0.001769 -0.000719 0.001763 1.0567264 1.0114405 1.6216152 42.0653670 19.4031874 38.9082021 15.0711386
1.7815351 0.2245000 1.0180832 -0.001931 -0.000196 0.001121 -0.5858418 -0.8296437 -1.2980411 32.9127626 21.1538575 41.2384018 16.6050507
1.6794563 0.2437231 1.0431745 -0.001874 0.000274 0.000481 -0.9362981 -2.0462321 -3.1230700 24.8622569 22.3495687 42.3814143 18.1560261
2.1114922 0.1398051 0.7095832 0.000607 -0.001538 0.000974 22.6493826 8.9004737 5.0664455 71.7347709 14.5100169 10.5061468 9.9012893
2.0643339 0.1801135 0.7908574 0.000410 -0.001725 0.001645 13.8666654 7.7275382 6.5346903 64.7458038 18.5088617 19.7855549 11.2561154
1.9980772 0.2149088 0.8613018 0.000131 -0.001703 0.001833 6.2602761 4.8076727 4.8025145 55.7126480 21.6781780 27.1969612 12.9063632
1.9170487 0.2438539 0.9189973 -0.000251 -0.001291 0.001616 1.4595855 1.5433808 1.6774436 45.9474491 23.9143258 32.5021397 14.6371694
1.8252740 0.2670649 0.9636896 -0.000477 -0.000726 0.001078 -0.7114111 -1.0553967 -1.1989502 36.4960202 25.3931554 35.9542874 16.3026173
1.7259733 0.2848641 0.9963136 -0.000719 -0.000098 0.000490 -1.2371116 -2.6794850 -3.1123448 28.0521905 26.3015973 37.9735878 17.8234528
2.0672022 0.2234154 0.7061109 0.001521 -0.002148 0.000771 12.6894330 8.7393179 2.9795168 64.8490801 22.9864081 9.9079714 11.4323612
2.0124497 0.2572856 0.7829204 0.001465 -0.002057 0.001191 6.0896585 5.4380390 3.0554395 57.2285223 26.0119563 18.3944477 12.7821413
1.9404776 0.2852289 0.8484878 0.001232 -0.001723 0.001233 1.3500669 1.5815055 1.1216295 48.2258070 28.0873460 24.9696816 14.4750675
1.8553309 0.3074006 0.9013604 0.000854 -0.001140 0.000939 -0.9574533 -1.5082544 -1.2178527 39.0823925 29.3794068 29.6113991 16.0204497
1.7607464 0.3241344 0.9416694 0.000586 -0.000512 0.000430 -1.5904902 -3.5050356 -3.0571546 30.5566932 30.0715347 32.6350926 17.6158528
2.0065425 0.2951156 0.7015016 0.002493 -0.002311 0.000558 4.3418309 4.5196595 1.0973467 56.0893364 29.7382854 9.0658964 13.2715207
1.9463859 0.3222716 0.7730996 0.002480 -0.002063 0.000838 0.5902063 0.7729250 0.3238171 48.5207463 31.7383314 16.6191130 14.6783892
1.8704545 0.3437740 0.8332319 0.002343 -0.001603 0.000680 -1.4397839 -2.4444398 -1.3344271 40.1749548 32.9238265 22.4000356 16.1542852
1.7826455 0.3599385 0.8808340 0.001954 -0.000908 0.000278 -1.9878364 -4.5590432 -2.8989748 32.0589191 33.4616781 26.4726980 17.6161572
1.9342054 0.3537535 0.6961897 0.003327 -0.002134 0.000299 -0.5821285 -0.8652099 -0.1625468 46.7923598 34.5677666 8.1315592 15.1391271
1.8701167 0.3748098 0.7619907 0.003231 -0.001702 0.000301 -2.0122816 -3.7447638 -1.2418432 39.8501408 35.7077700 14.8181230 16.3265250
1.7911881 0.3908664 0.8159888 0.003029 -0.001191 0.000138 -2.3709936 -5.7783538 -2.5328820 32.5201759 36.2740208 19.8006588 17.7438814
1.8542266 0.3998321 0.6904525 0.003955 -0.001798 0.000157 -2.5636863 -5.3406631 -0.8116780 37.9702211 37.8299036 7.1581470 16.9194812
1.7866212 0.4159221 0.7496127 0.003798 -0.001328 -0.000010 -2.6750420 -7.0725911 -1.9112576 31.8198544 38.3288723 12.8750909 18.0630671
1.7695581 0.4347534 0.6841382 0.004039 -0.001238 -0.000299 -2.7153786 -7.9736747 -0.9975307 30.1822668 39.6110654 6.2975542 18.4376476
1.7389696 0.4482225 0.6212294 0.003876 -0.001045 -0.000009 -2.9347666 -9.9778837 -0.0000145 27.5684233 40.3110185 0.0033409 19.0435359
1.8219564 0.4191889 0.6212292 0.004007 -0.001557 0.000013 -2.7149926 -6.5246254 -0.0000086 34.8141588 39.0677411 -0.0048580 17.4710945
1.9036929 0.3793682 0.6212291 0.003647 -0.001969 -0.000005 -1.7637097 -3.0463204 -0.0000036 43.2249547 36.5638824 0.0017551 15.9210933
1.9802350 0.3273250 0.6212290 0.003050 -0.002294 -0.000000 1.8001154 2.2126584 0.0000023 52.4451771 32.6000370 0.0006581 13.9829881
2.0475903 0.2620880 0.6212289 0.002153 -0.002286 0.000004 8.9412705 7.5436802 0.0000073 61.8178558 26.7822557 -0.0014392 12.1417084
2.1010647 0.1839121 0.6212288 0.001227 -0.001906 -0.000000 19.2440188 10.1706340 0.0000098 69.9942650 19.0679014 0.0003247 10.3086723
2.1357782 0.0950349 0.6212288 0.000501 -0.001108 -0.000003 29.0255060 7.3915225 0.0000100 75.5080477 9.8803933 0.0011956 9.1112045
2.1478510 0.0000003 0.6212288 0.000217 0.000000 0.000007 33.2242674 -0.0000062 0.0000097 77.4559329 -0.0001476 -0.0018906 8.5607172
2.1357781 -0.0950344 0.6212288 0.000501 0.001106 -0.000003 29.0255009 -7.3915323 0.0000100 75.5080982 -9.8803960 0.0010525 9.1113914
2.1010646 -0.1839116 0.6212288 0.001228 0.001906 -0.000000 19.2439944 -10.1706291 0.0000099 69.9939048 -19.0681580 0.0004460 10.3082354
2.0475902 -0.2620874 0.6212289 0.002153 0.002284 0.000004 8.9412710 -7.5436849 0.0000073 61.8179965 -26.7823175 -0.0013251 12.1419716
1.9802350 -0.3273244 0.6212290 0.003052 0.002294 0.000000 1.8000875 -2.2126252 0.0000024 52.4444389 -32.6001144 0.0004398 13.9822692
1.9036929 -0.3793675 0.6212291 0.003646 0.001967 -0.000005 -1.7637004 3.0463057 -0.0000036 43.2253411 -36.5639564 0.0018489 15.9214168
1.8219563 -0.4191882 0.6212292 0.004012 0.001557 0.000012 -2.7150240 6.5247035 -0.0000086 34.8121214 -39.0678811 -0.0042248 17.4696824
1.7389695 -0.4482218 0.6212294 0.003870 0.001043 -0.000007 -2.9347489 9.9778279 -0.0000145 27.5707409 -40.3108511 0.0026740 19.0438201
1.6810272 -0.4606619 0.5668769 0.004248 0.000907 0.000139 -3.0408829 12.9134382 1.2407164 22.9198723 -39.0793956 -4.7291581 19.8327805
1.6975290 -0.4473704 0.5077002 0.004073 0.000935 0.000173 -2.3472395 9.0418022 1.9865683 24.8113085 -40.0315588 -10.9609008 19.3920922
1.7050250 -0.4277178 0.4460926 0.003674 0.000858 0.000233 -2.2242385 7.9362615 2.8402311 25.4468221 -38.4800845 -17.1071220 19.2234118
1.7016790 -0.4020563 0.3847367 0.002626 0.000583 0.000193 -1.9735192 6.6709474 3.4420944 25.5182819 -36.3889985 -23.3045299 18.9277374
1.6865995 -0.3710654 0.3259373 0.001621 0.000296 0.000141 -1.6931448 5.5602512 3.8875300 24.6412447 -33.5955829 -29.1413577 18.9468045
1.6596590 -0.3358146 0.2717984 0.000359 -0.000091 0.000104 -1.3447867 4.4174552 4.0408390 23.0591367 -30.3663360 -34.4717847 18.8925330
1.6213913 -0.2976326 0.2240099 -0.000708 -0.000396 0.000065 -1.0110653 3.4437136 4.0404983 20.7661302 -26.8536911 -39.0519669 19.1578698
1.5728352 -0.2579385 0.1837118 -0.001725 -0.000659 0.000050 -0.7051837 2.6149486 3.8986262 18.0503239 -23.1749003 -42.8075914 19.3321537
1.5153377 -0.2180712 0.1514492 -0.002325 -0.000763 0.000053 -0.4516449 1.9679568 3.7255995 15.0163467 -19.5469247 -45.7164493 19.8026568
1.4503663 -0.1791688 0.1272249 -0.002723 -0.000804 0.000083 -0.2406421 1.4310421 3.4676762 11.9658353 -16.0164760 -47.9011263 20.1190669
1.3793691 -0.1421081 0.1106193 -0.002753 -0.000702 0.000105 -0.0804511 1.0459615 3.3050724 8.9721028 -12.7065176 -49.3763041 20.6854174
1.3037067 -0.1075047 0.1009197 -0.002637 -0.000566 0.000123 0.0447423 0.7223388 3.0792715 6.2207949 -9.6230301 -50.3805238 21.0343073
1.2246835 -0.0757556 0.0972388 -0.002296 -0.000399 0.000142 0.1435211 0.4935696 3.0173601 3.7135445 -6.8072329 -50.9160363 21.6211431
1.1436551 -0.0470926 0.0985786 -0.002004 -0.000238 0.000107 0.2256557 0.3045251 3.0070726 1.6059003 -4.2211010 -51.0746772 21.9072917
1.0627787 -0.0217921 0.1038276 -0.001679 -0.000023 0.000179 0.5325204 0.2426751 5.4533850 -0.2101021 -1.9006218 -50.4947121 22.4495424
1.7695581 0.4347536 0.5583204 0.004043 -0.001239 0.000293 -2.7154223 -7.9738055 0.9975245 30.1820255 39.6105298 -6.2953916 18.4353420
1.7866212 0.4159224 0.4928458 0.003808 -0.001329 0.000020 -2.6750269 -7.0725559 1.9112278 31.8154520 38.3296375 -12.8789408 18.0661269
1.7911882 0.3908669 0.4264695 0.003023 -0.001189 -0.000143 -2.3710249 -5.7784358 2.5329006 32.5231864 36.2732378 -19.7981159 17.7407331
1.7826455 0.3599391 0.3616242 0.001951 -0.000909 -0.000283 -1.9878310 -4.5590369 2.8989556 32.0606828 33.4623366 -26.4708692 17.6157044
1.7607465 0.3241351 0.3007886 0.000597 -0.000511 -0.000425 -1.5905156 -3.5050973 3.0571949 30.5525683 30.0710104 -32.6372327 17.6184844
1.7259733 0.2848648 0.2461443 -0.000728 -0.000097 -0.000493 -1.2371062 -2.6794785 3.1123248 28.0561001 26.3015585 -37.9720823 17.8219772
1.6794563 0.2437238 0.1992832 -0.001878 0.000272 -0.000483 -0.9363113 -2.0462654 3.1231089 24.8645415 22.3498989 -42.3805627 18.1525611
1.6227516 0.2022607 0.1610792 -0.002697 0.000507 -0.000419 -0.6796488 -1.5502918 3.1067047 21.2159877 18.4167984 -45.7650972 18.6212630
1.5575822 0.1618004 0.1317208 -0.003223 0.000636 -0.000314 -0.4646700 -1.1636169 3.0985651 17.4316613 14.6139608 -48.2286808 19.1476374
1.4856247 0.1233565 0.1108488 -0.003333 0.000577 -0.000203 -0.2751928 -0.8317200 3.0277416 13.6910274 11.0959802 -49.8673089 19.7360668
1.4083731 0.0876220 0.0977369 -0.003214 0.000490 -0.000089 -0.1191974 -0.5659004 2.9757174 10.1935823 7.8314638 -50.8727443 20.3236064
1.3270700 0.0550169 0.0914497 -0.002907 0.000301 0.000002 0.0099027 -0.3331643 2.8279314 7.0315177 4.9223803 -51.4188525 20.8979820
1.2426426 0.0257547 0.0909767 -0.002505 0.000177 0.000065 0.1077933 -0.1464244 2.6647740 4.2384129 2.2862214 -51.6684198 21.4502582
1.1553940 0.0000001 0.0953290 -0.002029 0.000003 0.000211 0.1555012 0.0000020 2.1764440 1.8038855 -0.0022110 -51.9468605 21.9638439
1.8542266 0.3998323 0.5520059 0.003950 -0.001798 -0.000166 -2.5636515 -5.3405926 0.8116535 37.9719115 37.8305279 -7.1531406 16.9202470
1.8701167 0.3748101 0.4804675 0.003230 -0.001701 -0.000301 -2.0123042 -3.7448086 1.2418482 39.8514350 35.7069783 -14.8181717 16.3250996
1.8704545 0.3437744 0.4092262 0.002352 -0.001604 -0.000670 -1.4397681 -2.4444156 1.3344068 40.1714467 32.9246949 -22.4029968 16.1578257
1.8553309 0.3074011 0.3410975 0.000851 -0.001138 -0.000940 -0.9574733 -1.5082881 1.2178748 39.0841100 29.3788208 -29.6103851 16.0179791
1.8252741 0.2670654 0.2787682 -0.000479 -0.000727 -0.001079 -0.7114048 -1.0553892 1.1989372 36.4972634 25.3938941 -35.9533298 16.3021002
1.7815351 0.2245005 0.2243744 -0.001917 -0.000194 -0.001114 -0.5858594 -0.8296704 1.2980783 32.9074462 21.1535049 -41.2406799 16.6081146
1.7259265 0.1814642 0.1792323 -0.002904 0.000119 -0.001033 -0.5632060 -0.7708193 1.6594105 28.5283239 16.9149742 -45.2808403 17.2612761
1.6605040 0.1394846 0.1437996 -0.003648 0.000348 -0.000873 -0.4986568 -0.6669258 2.0145083 23.9036120 12.8513047 -48.1858191 17.8366586
1.5872573 0.0997232 0.1178256 -0.003822 0.000354 -0.000644 -0.4089732 -0.5397099 2.4011033 19.2276390 9.0994127 -50.0675221 18.6614387
1.5078899 0.0629568 0.1005750 -0.003847 0.000316 -0.000421 -0.2701903 -0.3545889 2.5823090 14.8822512 5.6805992 -51.1769262 19.2909544
1.4236780 0.0296373 0.0910567 -0.003451 0.000123 -0.000213 -0.1318347 -0.1726914 2.7205812 10.8545673 2.6782155 -51.6810570 20.1220144
1.3353263 0.0000001 0.0881954 -0.003085 -0.000006 -0.000049 -0.0011707 0.0000015 2.6476711 7.3456785 0.0034137 -51.8125913 20.6861202
1.2426426 -0.0257545 0.0909767 -0.002507 -0.000179 0.000071 0.1075711 0.1461260 2.6592865 4.2377705 -2.2865011 -51.6735155 21.4468454
1.9342054 0.3537537 0.5462685 0.003333 -0.002134 -0.000285 -0.5821668 -0.8652671 0.1625556 46.7905368 34.5674082 -8.1364795 15.1389147
1.9463860 0.3222719 0.4693584 0.002477 -0.002064 -0.000846 0.5902166 0.7729391 -0.3238211 48.5220913 31.7389579 -16.6154720 14.6781630
1.9404777 0.2852293 0.3939701 0.001229 -0.001722 -0.001236 1.3500298 1.5814638 -1.1215954 48.2270817 28.0865724 -24.9686170 14.4731378
1.9170488 0.2438543 0.3234604 -0.000243 -0.001292 -0.001611 1.4595974 1.5433956 -1.6774541 45.9449519 23.9149304 -32.5040139 14.6406352
1.8774536 0.1999465 0.2606792 -0.001774 -0.000718 -0.001766 1.0567039 1.0114208 -1.6215787 42.0676025 19.4025877 -38.9067214 15.0684809
1.8237909 0.1554538 0.2075640 -0.003022 -0.000259 -0.001725 0.4484677 0.3860372 -0.9116893 36.9970273 14.8799390 -43.8591432 15.7588900
1.7585375 0.1121121 0.1649937 -0.003875 0.000081 -0.001505 -0.0431000 -0.0325785 0.1174053 31.3968982 10.5547003 -47.4421939 16.5755536
1.6841253 0.0712417 0.1329161 -0.004247 0.000177 -0.001184 -0.3021358 -0.1878456 1.1377002 25.6863958 6.6077546 -49.7456183 17.4852061
1.6026192 0.0337084 0.1106284 -0.004248 0.000161 -0.000828 -0.3539448 -0.1464332 1.9562892 20.2398388 3.0661951 -51.0542882 18.3966111
1.5155274 0.0000001 0.0970685 -0.003940 0.000001 -0.000491 -0.2670023 0.0000012 2.4411572 15.2726409 -0.0013057 -51.6205746 19.2880904
1.4236780 -0.0296371 0.0910567 -0.003455 -0.000123 -0.000212 -0.1318379 0.1726986 2.7206483 10.8568779 -2.6794356 -51.6810887 20.1241689
1.3270700 -0.0550167 0.0914498 -0.002903 -0.000294 -0.000000 0.0099097 0.3334028 2.8299270 7.0300510 -4.9283817 -51.4159733 20.8989965
2.0065425 0.2951158 0.5409563 0.002491 -0.002310 -0.000563 4.3418550 4.5196864 -1.0973437 56.0902136 29.7385272 -9.0637551 13.2719007
2.0124498 0.2572858 0.4595374 0.001472 -0.002056 -0.001177 6.0896402 5.4380268 -3.0554197 57.2263614 26.0115723 -18.3989928 12.7830436
1.9980773 0.2149091 0.3811559 0.000129 -0.001704 -0.001837 6.2602953 4.8076928 -4.8025199 55.7139315 21.6789470 -27.1948721 12.9060313
1.9646380 0.1697977 0.3095868 -0.001434 -0.001056 -0.002200 5.0915119 3.3270400 -5.4547652 51.9116552 16.9502288 -34.9233278 13.2562621
1.9144155 0.1240533 0.2476441 -0.002765 -0.000609 -0.002309 3.2088236 1.7264898 -4.6351140 46.3270970 12.2396258 -41.0961050 14.1177689
1.8503368 0.0796095 0.1968652 -0.003864 -0.000148 -0.002162 1.5103585 0.6161919 -2.9203970 39.7969307 7.6980207 -45.6153151 15.0144432
1.7753931 0.0379421 0.1575743 -0.004345 -0.000048 -0.001769 0.3455292 0.0836322 -0.9059975 32.9330932 3.6264606 -48.5970734 16.2033953
1.6921769 0.0000001 0.1291938 -0.004536 -0.000002 -0.001320 -0.2007704 0.0000003 0.7388907 26.3355190 0.0010396 -50.3034252 17.2198702
1.6026192 -0.0337081 0.1106285 -0.004244 -0.000163 -0.000828 -0.3539638 0.1464429 1.9563940 20.2381056 -3.0659623 -51.0541509 18.3943754
1.5078899 -0.0629565 0.1005751 -0.003848 -0.000321 -0.000420 -0.2701829 0.3545818 2.5822378 14.8820959 -5.6777841 -51.1775098 19.2908793
1.4083731 -0.0876218 0.0977370 -0.003212 -0.000497 -0.000087 -0.1191692 0.5657698 2.9750130 10.1922849 -7.8283805 -50.8739002 20.3208875
2.0672023 0.2234155 0.5363468 0.001521 -0.002149 -0.000775 12.6894096 8.7393051 -2.9794948 64.8492206 22.9863020 -9.9060479 11.4315325
2.0643340 0.1801137 0.4516002 0.000407 -0.001725 -0.001651 13.8666844 7.7275545 -6.5346841 64.7470236 18.5089548 -19.7833216 11.2558838
2.0395162 0.1339962 0.3717187 -0.000906 -0.001207 -0.002277 12.1109093 5.2788788 -8.8191024 61.6061915 13.6890408 -28.8820802 11.6088857
1.9948749 0.0872834 0.3006116 -0.002311 -0.000667 -0.002675 8.5079402 2.6591979 -8.7461223 55.9754598 8.8234633 -36.4735081 12.4519917
1.9336450 0.0420798 0.2407767 -0.003420 -0.000164 -0.002629 4.7397895 0.8233958 -6.6461399 48.7112686 4.1521297 -42.2773230 13.5807243
1.8594042 0.0000002 0.1931840 -0.004100 -0.000000 -0.002289 1.9468425 -0.0000015 -3.7029141 40.7971706 -0.0002959 -46.2399963 14.8861357
1.7753931 -0.0379418 0.1575743 -0.004350 0.000047 -0.001770 0.3455558 -0.0836394 -0.9060672 32.9350071 -3.6268623 -48.5967576 16.2045130
1.6841253 -0.0712414 0.1329162 -0.004246 -0.000175 -0.001185 -0.3021352 0.1878463 1.1376980 25.6859484 -6.6099041 -49.7453447 17.4859006