# volRat = 0.650000
# viscRat = 5.000000
# alpha = 1.000000
# shRate = 2.250000
# tnum = 1400
# time = 1.498000
VARIABLES = X, Y, Z, U, V, W, F_B0, F_B1, F_B2, F_0, F_1, F_2, T
ZONE N=2562 E=5120 F=FEPOINT ET=TRIANGLE
1.6671354 0.4671190 0.6212299 0.002730 -0.005533 0.000001 2.9360722 12.9089631 0.0000037 24.4010178 49.4633711 -0.0004183 19.9942178
-1.6671354 0.4671190 0.6212299 -0.002731 -0.005533 0.000001 -2.9360695 12.9089940 0.0000043 -24.4003456 49.4637109 -0.0005622 19.9966303
1.6671354 -0.4671190 0.6212299 0.002731 0.005533 0.000001 2.9360698 -12.9089945 0.0000042 24.4003389 -49.4637072 -0.0005955 19.9965786
-1.6671354 -0.4671190 0.6212299 -0.002730 0.005533 0.000001 -2.9360716 -12.9089598 0.0000038 -24.4010211 -49.4633707 -0.0003635 19.9942628
1.0011933 -0.0000000 1.1340000 -0.005435 -0.000006 0.006038 -0.3835984 -0.0000052 3.3650336 -0.8976663 0.0049050 45.7139218 22.7324131
1.0011933 -0.0000000 0.1084597 -0.005436 0.000002 -0.005971 -0.3902883 -0.0000042 -3.4237296 -0.8988102 -0.0155609 -45.7700449 22.7351856
-1.0011933 0.0000000 1.1339999 0.005437 0.000006 0.005987 0.3889284 0.0000054 3.4117907 0.8979907 -0.0048572 45.7587517 22.7362001
-1.0011933 0.0000000 0.1084596 0.005434 -0.000002 -0.006016 0.3855418 0.0000043 -3.3820915 0.8987280 0.0155326 -45.7300953 22.7316466
-0.0000000 0.3386448 0.8313474 0.000004 0.003894 0.003236 0.0000074 -108.0266790 -60.6295921 -0.0013542 -51.2066353 -25.1479654 25.7118219
0.0000000 -0.3386448 0.8313474 -0.000000 -0.003882 0.003229 -0.0000333 107.9713978 -60.5981160 0.0076082 51.1521852 -25.1173759 25.7118617
-0.0000000 0.3386445 0.4111125 0.000006 0.003282 -0.002877 -0.0001382 -104.7123178 58.7680756 0.0109717 -47.9440801 23.3226371 25.7187384
0.0000000 -0.3386445 0.4111125 -0.000009 -0.003295 -0.002884 0.0001931 104.7718589 58.8015732 -0.0170803 48.0026712 23.3553825 25.7186337
1.6893536 0.4601474 0.6754189 0.004881 -0.002287 -0.000221 -3.0224909 -12.0950309 -1.1596115 24.1810515 39.9801672 4.7838105 19.8337499
1.7053959 0.4467711 0.7344290 0.004720 -0.002523 -0.000584 -2.4137542 -8.7925147 -1.9291972 25.9399052 40.2524959 10.9868549 19.3780172
1.7124959 0.4271801 0.7958966 0.004298 -0.002573 -0.000912 -2.2639491 -7.6577345 -2.7371311 26.5743116 38.7244753 17.1503975 19.2310037
1.7088567 0.4017318 0.8571694 0.003267 -0.002115 -0.001070 -2.0118484 -6.4558413 -3.3264480 26.6127903 36.5920116 23.3541922 18.9247116
1.6936252 0.3710867 0.9159724 0.002201 -0.001727 -0.001263 -1.7171655 -5.3543456 -3.7368021 25.7062517 33.8523315 29.2397612 18.9721621
1.6667088 0.3362729 0.9702279 0.000812 -0.001234 -0.001494 -1.3661430 -4.2552101 -3.8827065 24.0776882 30.6471202 34.6249172 18.9193485
1.6286682 0.2985622 1.0182628 -0.000453 -0.000828 -0.001724 -1.0325320 -3.3228839 -3.8851839 21.7354715 27.1763319 39.2727149 19.2031322
1.5805590 0.2593092 1.0589386 -0.001694 -0.000423 -0.001993 -0.7269572 -2.5288947 -3.7524956 18.9511430 23.5175447 43.1207497 19.3850658
1.5237345 0.2197906 1.0916947 -0.002570 -0.000195 -0.002251 -0.4732762 -1.9073353 -3.5883157 15.8362271 19.9095826 46.1301870 19.8777861
1.4596563 0.1810938 1.1164964 -0.003302 0.000002 -0.002504 -0.2610659 -1.3894820 -3.3402208 12.7013962 16.3625347 48.4148017 20.1859568
1.3897517 0.1440636 1.1337188 -0.003653 0.000060 -0.002686 -0.0995691 -1.0161510 -3.1794934 9.5896389 13.0318530 49.9855511 20.7782236
1.3153404 0.1093066 1.1440203 -0.003902 0.000096 -0.002747 0.0277640 -0.7051338 -2.9710136 6.7166856 9.8922053 51.0479922 21.1283166
1.2376610 0.0772350 1.1482284 -0.003944 0.000075 -0.002766 0.1299627 -0.4869758 -2.9372419 4.0801979 7.0242727 51.6025101 21.7172446
1.1579748 0.0481204 1.1472807 -0.003953 -0.000039 -0.003777 0.1487191 -0.2074031 -2.0177312 1.7680419 4.4474737 52.6677092 22.0198188
1.0783050 0.0223009 1.1422367 -0.004057 -0.000093 -0.002331 0.4952715 -0.2273470 -5.0300669 -0.1915257 1.9697960 51.5682558 22.5777421
1.7758605 -0.4334967 0.6839210 0.005127 0.002396 -0.000464 -2.6838001 7.5257734 -0.9409681 31.3573760 -39.8087830 6.3144429 18.4301795
1.7924275 -0.4146170 0.7491855 0.004858 0.002721 -0.000439 -2.6573582 6.7280156 -1.8178348 32.9437296 -38.3949715 12.8719079 18.0587187
1.7966458 -0.3896897 0.8153869 0.004125 0.002460 -0.000484 -2.3384848 5.4669598 -2.3962484 33.6248090 -36.3145703 19.7927417 17.7389199
1.7879203 -0.3590545 0.8801295 0.003043 0.002086 -0.000527 -1.9463049 4.2853000 -2.7242076 33.1342675 -33.5381601 26.4683783 17.6301573
1.7660337 -0.3236701 0.9409721 0.001569 0.001600 -0.000630 -1.5516423 3.2818658 -2.8603592 31.6091623 -30.1861473 32.6755333 17.6340050
1.7314915 -0.2848871 0.9957623 0.000087 0.001114 -0.000823 -1.2097459 2.5109210 -2.9120585 29.0775982 -26.4730841 38.0685639 17.8596065
1.6854367 -0.2442299 1.0429202 -0.001300 0.000642 -0.001128 -0.9219708 1.9244000 -2.9293783 25.8512888 -22.5611939 42.5727356 18.1989313
1.6294286 -0.2031765 1.0815633 -0.002414 0.000305 -0.001475 -0.6768965 1.4654826 -2.9249226 22.1600207 -18.6654252 46.0630327 18.6762198
1.5651849 -0.1629922 1.1114749 -0.003256 0.000026 -0.001873 -0.4710995 1.1068445 -2.9306055 18.3028651 -14.8580602 48.6543653 19.2130211
1.4943669 -0.1246501 1.1329719 -0.003711 -0.000030 -0.002210 -0.2873591 0.7953769 -2.8735049 14.4724364 -11.3407771 50.4012861 19.8173954
1.4184373 -0.0888263 1.1467287 -0.003989 -0.000118 -0.002514 -0.1345487 0.5436146 -2.8311311 10.8759436 -8.0208310 51.5121854 20.3978650
1.3385840 -0.0559491 1.1536230 -0.004037 -0.000056 -0.002710 -0.0060174 0.3209806 -2.6929217 7.5754470 -5.0688341 52.1267267 20.9951408
1.2556468 -0.0262657 1.1546057 -0.004033 -0.000076 -0.002907 0.0929129 0.1412905 -2.5370821 4.6378029 -2.3513845 52.4176171 21.5549111
1.1698007 -0.0000000 1.1506035 -0.004011 -0.000002 -0.002277 0.1869267 0.0000000 -2.6798788 2.1013267 0.0009289 52.0396299 22.0650791
1.8585975 -0.3979631 0.6901791 0.005389 0.002862 -0.000019 -2.4719954 4.9642894 -0.7549751 39.0391131 -37.7174014 7.1247708 16.9085258
1.8739833 -0.3729637 0.7614425 0.004770 0.002670 -0.000063 -1.8763368 3.3730721 -1.1196247 40.8806869 -35.5793321 14.7642275 16.3077245
1.8740463 -0.3421506 0.8324550 0.003910 0.002481 0.000157 -1.2980432 2.1312937 -1.1645628 41.1745261 -32.8123485 22.3111204 16.1580682
1.8588870 -0.3061640 0.9004526 0.002362 0.001945 0.000217 -0.8244915 1.2564135 -1.0151592 40.0706099 -29.3088225 29.5216210 16.0201067
1.8290464 -0.2663174 0.9627952 0.000879 0.001499 0.000128 -0.6013160 0.8623666 -0.9797317 37.4841944 -25.4020953 35.8971554 16.3297622
1.7857777 -0.2242649 1.0173741 -0.000794 0.000895 -0.000112 -0.5046136 0.6895309 -1.0779393 33.8992137 -21.2189714 41.2610667 16.6286487
1.7308849 -0.1816831 1.0628733 -0.002069 0.000516 -0.000499 -0.5098216 0.6708982 -1.4413806 29.5127381 -17.0430003 45.4193859 17.3075432
1.6664104 -0.1400309 1.0988099 -0.003151 0.000178 -0.000972 -0.4705152 0.6013762 -1.8100767 24.8577469 -12.9994985 48.4575709 17.8817701
1.5943264 -0.1004212 1.1253915 -0.003715 0.000055 -0.001503 -0.4005101 0.4996571 -2.2110300 20.1350050 -9.2533468 50.4814555 18.7182092
1.5163107 -0.0636074 1.1433006 -0.004119 -0.000057 -0.001985 -0.2751296 0.3340446 -2.4147611 15.6985498 -5.7947194 51.7149323 19.3520445
1.4335955 -0.0300448 1.1534719 -0.004122 0.000024 -0.002396 -0.1446611 0.1650243 -2.5750585 11.5561212 -2.7561075 52.3209995 20.2048640
1.3468105 -0.0000000 1.1569220 -0.004210 -0.000000 -0.002690 -0.0161603 -0.0000000 -2.5358977 7.9221642 0.0001272 52.5004236 20.7573813
1.2556468 0.0262657 1.1546057 -0.004034 0.000077 -0.002911 0.0928353 -0.1411726 -2.5349649 4.6381885 2.3508537 52.4197233 21.5536639
1.9367092 -0.3514653 0.6958437 0.005246 0.002836 0.000138 -0.3554882 0.5128058 -0.0964985 47.6928595 -34.2919795 8.0768972 15.1320928
1.9484354 -0.3201246 0.7723992 0.004495 0.002663 0.000561 0.8315669 -1.0585229 0.4442647 49.3622269 -31.4620303 16.4851288 14.6852588
1.9423813 -0.2834246 0.8474974 0.003246 0.002261 0.000797 1.5769271 -1.7966668 1.2763856 49.0450928 -27.8541613 24.7834048 14.4894525
1.9191185 -0.2425310 0.9178532 0.001652 0.001808 0.000998 1.6584697 -1.7053179 1.8558946 46.7876540 -23.7676159 32.3011803 14.6656548
1.8799889 -0.1991555 0.9806687 -0.000090 0.001197 0.000902 1.2199125 -1.1341625 1.8195604 42.9561622 -19.3374769 38.7545411 15.1013299
1.8270633 -0.1551524 1.0340231 -0.001635 0.000706 0.000579 0.5732008 -0.4781725 1.1289173 37.9355650 -14.8975530 43.8078979 15.8036465
1.7627859 -0.1121770 1.0770179 -0.002860 0.000270 0.000029 0.0415674 -0.0303315 0.1091295 32.3689599 -10.6095222 47.5363102 16.6159062
1.6895591 -0.0714929 1.1096598 -0.003624 0.000082 -0.000626 -0.2543613 0.1516819 -0.9156784 26.6501860 -6.6805439 50.0013955 17.5408766
1.6094206 -0.0339378 1.1325946 -0.004039 -0.000034 -0.001305 -0.3362087 0.1319360 -1.7534795 21.1531408 -3.1117554 51.4670507 18.4562746
1.5238429 -0.0000000 1.1468246 -0.004183 -0.000001 -0.001911 -0.2690570 -0.0000000 -2.2658889 16.1090344 0.0006202 52.1633045 19.3525307
1.4335955 0.0300448 1.1534719 -0.004122 -0.000023 -0.002396 -0.1446613 -0.1650246 -2.5750620 11.5563794 2.7556966 52.3210524 20.2039819
1.3385840 0.0559491 1.1536230 -0.004036 0.000056 -0.002710 -0.0060180 -0.3210127 -2.6931904 7.5751377 5.0691388 52.1263874 20.9961717
2.0072791 -0.2926955 0.7010652 0.004908 0.002671 0.000454 4.6232726 -4.6939382 1.1423868 56.7131908 -29.3389178 8.9592149 13.2895756
2.0128540 -0.2551595 0.7820435 0.003964 0.002342 0.000970 6.3401983 -5.5273296 3.1131733 57.7868136 -25.6469964 18.1773405 12.7999691
1.9985395 -0.2132498 0.8600827 0.002558 0.001978 0.001494 6.4831671 -4.8613063 4.8669562 56.3002344 -21.4080851 26.8972920 12.9446517
1.9655307 -0.1686841 0.9314959 0.000811 0.001325 0.001674 5.2932435 -3.3749545 5.5431672 52.5776553 -16.7815401 34.6111666 13.2912379
1.9160615 -0.1234573 0.9935160 -0.000833 0.000873 0.001536 3.3913839 -1.7776218 4.7772996 47.1160384 -12.1731704 40.8522938 14.1589552
1.8529975 -0.0794095 1.0446002 -0.002299 0.000350 0.001074 1.6604082 -0.6580938 3.1188878 40.6871080 -7.6896733 45.5093490 15.0504580
1.7792763 -0.0379514 1.0843799 -0.003226 0.000172 0.000331 0.4480113 -0.1048762 1.1345053 33.8912233 -3.6467404 48.6644106 16.2519203
1.6974512 -0.0000000 1.1133684 -0.003883 -0.000001 -0.000467 -0.1461825 -0.0000000 -0.5149724 27.3036503 0.0002049 50.5436892 17.2572262
1.6094206 0.0339378 1.1325946 -0.004040 0.000036 -0.001305 -0.3362096 -0.1319364 -1.7534845 21.1532495 3.1112671 51.4670469 18.4550622
1.5163107 0.0636074 1.1433006 -0.004119 0.000058 -0.001985 -0.2751287 -0.3340435 -2.4147534 15.6983872 5.7940154 51.7150387 19.3529821
1.4184373 0.0888263 1.1467287 -0.003990 0.000117 -0.002514 -0.1345464 -0.5436052 -2.8310819 10.8759068 8.0214239 51.5121173 20.3978467
2.0663659 -0.2212379 0.7055755 0.004411 0.002261 0.000698 12.8410754 -8.6552509 2.9594729 65.1299397 -22.5682708 9.7549988 11.4818162
2.0633762 -0.1783855 0.7898059 0.003314 0.001822 0.001499 13.9660900 -7.6202720 6.4624475 65.0113464 -18.1817388 19.4841348 11.3202258
2.0388987 -0.1328209 0.8693199 0.001851 0.001314 0.002010 12.2240040 -5.2150196 8.7349124 61.9689730 -13.4751783 28.4910046 11.6688300
1.9950000 -0.0866459 0.9402995 0.000160 0.000779 0.002211 8.6673443 -2.6484258 8.7284602 56.5107291 -8.7187360 36.0854651 12.5132010
1.9348225 -0.0418585 1.0002729 -0.001342 0.000247 0.001894 4.9205908 -0.8339111 6.7391756 49.4345012 -4.1237396 41.9873187 13.6334134
1.8618552 -0.0000000 1.0482359 -0.002519 -0.000001 0.001238 2.0896192 0.0000000 3.8644235 41.6570127 0.0002619 46.0880154 14.9318875
1.7792763 0.0379514 1.0843799 -0.003228 -0.000171 0.000331 0.4480130 0.1048766 1.1345098 33.8916272 3.6464542 48.6643435 16.2511609
1.6895591 0.0714929 1.1096598 -0.003624 -0.000082 -0.000626 -0.2543610 -0.1516817 -0.9156771 26.6499720 6.6805971 50.0014149 17.5418056
1.5943264 0.1004212 1.1253915 -0.003715 -0.000057 -0.001502 -0.4005096 -0.4996565 -2.2110268 20.1350388 9.2541864 50.4813128 18.7185894
1.4943669 0.1246501 1.1329719 -0.003711 0.000030 -0.002210 -0.2873620 -0.7953848 -2.8735334 14.4725931 11.3406909 50.4012498 19.8162756
2.1094369 -0.1382760 0.7089595 0.003888 0.001528 0.000928 22.4829133 -8.6655625 4.9487580 71.7027615 -14.2006822 10.3162292 9.9888929
2.0958927 -0.0919495 0.7949140 0.002845 0.001008 0.001780 21.2700614 -5.5902152 9.5013376 69.9579580 -9.4264651 20.3548583 10.1034785
2.0601067 -0.0451503 0.8742499 0.001424 0.000477 0.002325 16.2483695 -2.2509179 11.3305094 65.0750489 -4.6076838 29.3101283 10.9705735
2.0051267 -0.0000000 0.9433535 -0.000047 -0.000001 0.002363 10.1178619 0.0000000 10.0583423 57.8970586 0.0002466 36.6255720 12.0874942
1.9348225 0.0418585 1.0002729 -0.001342 -0.000246 0.001894 4.9205907 0.8339111 6.7391755 49.4345003 4.1234299 41.9873463 13.6324867
1.8529975 0.0794095 1.0446002 -0.002299 -0.000350 0.001074 1.6604084 0.6580939 3.1188882 40.6869509 7.6895338 45.5094313 15.0512423
1.7627859 0.1121770 1.0770179 -0.002859 -0.000271 0.000029 0.0415660 0.0303305 0.1091258 32.3687043 10.6098289 47.5362989 16.6158874
1.6664104 0.1400309 1.0988099 -0.003152 -0.000177 -0.000972 -0.4705156 -0.6013767 -1.8100782 24.8580560 12.9988700 48.4577081 17.8806062
1.5651849 0.1629922 1.1114749 -0.003256 -0.000025 -0.001874 -0.4710983 -1.1068417 -2.9305980 18.3027131 14.8575542 48.6545498 19.2137199
2.1322773 -0.0470942 0.7107895 0.003562 0.000535 0.001050 29.2687560 -3.6716466 6.2968723 75.2651994 -4.8311163 10.6003209 9.1395286
2.1071485 -0.0000000 0.7967041 0.002625 -0.000001 0.001933 24.2537369 -0.0000000 10.7082550 71.6845468 0.0001830 20.6227587 9.7707525
2.0601067 0.0451503 0.8742499 0.001423 -0.000476 0.002326 16.2483702 2.2509180 11.3305099 65.0752025 4.6074231 29.3099942 10.9697595
1.9950000 0.0866459 0.9402995 0.000160 -0.000778 0.002211 8.6673446 2.6484259 8.7284605 56.5106813 8.7186011 36.0855360 12.5140037
1.9160615 0.1234573 0.9935160 -0.000833 -0.000874 0.001537 3.3913859 1.7776228 4.7773023 47.1161002 12.1735935 40.8521488 14.1591669
1.8270633 0.1551524 1.0340231 -0.001636 -0.000705 0.000579 0.5732017 0.4781732 1.1289190 37.9358153 14.8973027 43.8078831 15.8027223
1.7308849 0.1816830 1.0628733 -0.002070 -0.000516 -0.000499 -0.5098202 -0.6708964 -1.4413767 29.5127961 17.0431124 45.4193476 17.3085894
1.6294286 0.2031764 1.0815632 -0.002413 -0.000307 -0.001474 -0.6768976 -1.4654851 -2.9249274 22.1596183 18.6662965 46.0626603 18.6765964
2.1322773 0.0470942 0.7107895 0.003562 -0.000534 0.001049 29.2687558 3.6716466 6.2968723 75.2652440 4.8308350 10.6005119 9.1387672
2.0958927 0.0919495 0.7949140 0.002845 -0.001008 0.001780 21.2700623 5.5902155 9.5013380 69.9579214 9.4264450 20.3548702 10.1042141
2.0388987 0.1328209 0.8693199 0.001852 -0.001315 0.002009 12.2240072 5.2150209 8.7349147 61.9688211 13.4754806 28.4910700 11.6689515
1.9655307 0.1686841 0.9314959 0.000811 -0.001325 0.001675 5.2932416 3.3749533 5.5431651 52.5777587 16.7813228 34.6111592 13.2902364
1.8799889 0.1991555 0.9806687 -0.000090 -0.001196 0.000902 1.2199120 1.1341621 1.8195597 42.9560043 19.3372787 38.7547483 15.1020615
1.7857777 0.2242649 1.0173741 -0.000793 -0.000896 -0.000111 -0.5046149 -0.6895327 -1.0779420 33.8988677 21.2193595 41.2609444 16.6287338
1.6854367 0.2442299 1.0429202 -0.001301 -0.000640 -0.001129 -0.9219703 -1.9243990 -2.9293769 25.8517338 22.5603792 42.5731557 18.1976315
2.1094369 0.1382760 0.7089595 0.003888 -0.001529 0.000929 22.4829122 8.6655620 4.9487578 71.7026470 14.2010388 10.3160201 9.9889674
2.0633762 0.1783855 0.7898059 0.003314 -0.001821 0.001499 13.9660899 7.6202719 6.4624475 65.0115067 18.1814347 19.4841953 11.3193427
1.9985395 0.2132498 0.8600827 0.002557 -0.001978 0.001494 6.4831708 4.8613091 4.8669591 56.3003436 21.4080330 26.8972287 12.9454574
1.9191185 0.2425310 0.9178532 0.001653 -0.001809 0.000998 1.6584701 1.7053184 1.8558951 46.7874311 23.7679936 32.3010438 14.6659168
1.8290464 0.2663174 0.9627952 0.000877 -0.001498 0.000128 -0.6013141 -0.8623639 -0.9797287 37.4847764 25.4018157 35.8971300 16.3288644
1.7314915 0.2848871 0.9957623 0.000087 -0.001114 -0.000823 -1.2097461 -2.5109213 -2.9120588 29.0774026 26.4732617 38.0684423 17.8605209
2.0663659 0.2212378 0.7055755 0.004411 -0.002260 0.000697 12.8410803 8.6552542 2.9594740 65.1300735 22.5681249 9.7551554 11.4826713
2.0128540 0.2551595 0.7820435 0.003965 -0.002344 0.000971 6.3401955 5.5273272 3.1131720 57.7863912 25.6474472 18.1772009 12.8000664
1.9423813 0.2834246 0.8474974 0.003245 -0.002259 0.000796 1.5769277 1.7966675 1.2763861 49.0454437 27.8537406 24.7836548 14.4884813
1.8588870 0.3061640 0.9004526 0.002363 -0.001946 0.000217 -0.8244949 -1.2564187 -1.0151634 40.0703101 29.3088724 29.5216501 16.0206854
1.7660337 0.3236701 0.9409721 0.001570 -0.001600 -0.000630 -1.5516418 -3.2818646 -2.8603581 31.6087748 30.1863341 32.6755760 17.6343296
2.0072791 0.2926955 0.7010652 0.004907 -0.002670 0.000454 4.6232721 4.6939377 1.1423867 56.7135144 29.3386132 8.9591434 13.2885585
1.9484354 0.3201246 0.7723992 0.004495 -0.002662 0.000561 0.8315658 1.0585216 0.4442642 49.3622689 31.4619862 16.4852004 14.6860281
1.8740463 0.3421506 0.8324550 0.003910 -0.002481 0.000158 -1.2980417 -2.1312911 -1.1645615 41.1742700 32.8127382 22.3107625 16.1585433
1.7879203 0.3590545 0.8801295 0.003042 -0.002085 -0.000527 -1.9463054 -4.2853011 -2.7242083 33.1349443 33.5377645 26.4685501 17.6290047
1.9367092 0.3514653 0.6958437 0.005247 -0.002837 0.000137 -0.3554849 -0.5128011 -0.0964976 47.6925941 34.2922625 8.0768945 15.1326376
1.8739833 0.3729637 0.7614425 0.004769 -0.002670 -0.000063 -1.8763400 -3.3730777 -1.1196266 40.8809493 35.5790237 14.7643580 16.3063082
1.7966458 0.3896897 0.8153869 0.004125 -0.002459 -0.000485 -2.3384833 -5.4669562 -2.3962468 33.6246631 36.3145800 19.7929978 17.7397955
1.8585975 0.3979631 0.6901791 0.005389 -0.002862 -0.000018 -2.4719945 -4.9642876 -0.7549748 39.0389628 37.7174934 7.1246391 16.9093336
1.7924275 0.4146170 0.7491855 0.004859 -0.002722 -0.000439 -2.6573573 -6.7280134 -1.8178342 32.9434016 38.3952090 12.8716456 18.0592671
1.7758606 0.4334967 0.6839210 0.005124 -0.002395 -0.000466 -2.6837959 -7.5257616 -0.9409666 31.3585873 39.8084047 6.3149826 18.4290455
1.7459746 0.4471955 0.6212299 0.004565 -0.003108 -0.000000 -3.0275052 -9.7841486 -0.0000010 28.6768688 40.3922632 -0.0000537 19.0397463
1.8270945 0.4175111 0.6212299 0.005269 -0.002781 0.000001 -2.6600337 -6.1415187 -0.0000006 35.9327479 39.0518996 -0.0003074 17.4413302
1.9069606 0.3771698 0.6212299 0.005367 -0.002846 -0.000000 -1.5854319 -2.6509413 -0.0000003 44.2083898 36.3524476 0.0000768 15.9122616
1.9816810 0.3248437 0.6212299 0.005281 -0.002786 0.000000 2.0789775 2.4877924 0.0000002 53.1891493 32.2235804 -0.0000423 13.9767729
2.0473370 0.2596616 0.6212298 0.004874 -0.002487 -0.000000 9.1799837 7.5706537 0.0000008 62.2326633 26.3367565 0.0000320 12.1757546
2.0993719 0.1819495 0.6212298 0.004405 -0.001918 0.000000 19.2097560 9.9510434 0.0000014 70.0463627 18.6694801 0.0000027 10.3734677
2.1330971 0.0939294 0.6212298 0.003994 -0.001070 -0.000000 28.6083311 7.1520095 0.0000018 75.3013219 9.6540946 0.0000329 9.2239459
2.1448149 -0.0000000 0.6212298 0.003841 -0.000001 0.000000 32.6156610 -0.0000000 0.0000019 77.1463388 0.0002815 -0.0000102 8.6764972
2.1330971 -0.0939294 0.6212298 0.003994 0.001070 -0.000000 28.6083361 -7.1520108 0.0000017 75.3012815 -9.6542962 0.0000786 9.2231442
2.0993719 -0.1819495 0.6212298 0.004405 0.001918 0.000000 19.2097588 -9.9510449 0.0000014 70.0463385 -18.6696268 -0.0000941 10.3744858
2.0473370 -0.2596616 0.6212298 0.004874 0.002487 -0.000000 9.1799815 -7.5706519 0.0000008 62.2329020 -26.3364298 0.0000797 12.1754687
1.9816810 -0.3248438 0.6212299 0.005280 0.002786 0.000000 2.0789840 -2.4878001 0.0000002 53.1894008 -32.2235172 -0.0000312 13.9762521
1.9069606 -0.3771698 0.6212299 0.005369 0.002847 0.000000 -1.5854331 2.6509433 -0.0000003 44.2076137 -36.3528523 -0.0000816 15.9133928
1.8270945 -0.4175111 0.6212299 0.005266 0.002780 0.000000 -2.6600267 6.1415025 -0.0000006 35.9339814 -39.0515487 -0.0000978 17.4411316
1.7459746 -0.4471955 0.6212299 0.004566 0.003109 -0.000000 -3.0275082 9.7841584 -0.0000010 28.6764612 -40.3922731 0.0001632 19.0389068
1.6893536 -0.4601474 0.5670408 0.004879 0.002286 0.000222 -3.0224908 12.0950304 1.1596090 24.1818979 -39.9800292 -4.7834624 19.8327962
1.7053959 -0.4467712 0.5080307 0.004717 0.002522 0.000584 -2.4137503 8.7925002 1.9291922 25.9409692 -40.2522756 -10.9872379 19.3775634
1.7124959 -0.4271801 0.4465631 0.004302 0.002574 0.000912 -2.2639509 7.6577408 2.7371317 26.5728315 -38.7249008 -17.1502404 19.2322506
1.7088567 -0.4017319 0.3852903 0.003264 0.002113 0.001071 -2.0118461 6.4558339 3.3264427 26.6137496 -36.5916027 -23.3546762 18.9245835
1.6936253 -0.3710867 0.3264873 0.002201 0.001727 0.001263 -1.7171682 5.3543541 3.7368068 25.7062188 -33.8523321 -29.2396424 18.9707371
1.6667088 -0.3362729 0.2722318 0.000814 0.001234 0.001494 -1.3661408 4.2552031 3.8826990 24.0769069 -30.6473621 -34.6250377 18.9213853
1.6286682 -0.2985623 0.2241968 -0.000452 0.000827 0.001725 -1.0325378 3.3229023 3.8852044 21.7353420 -27.1759587 -39.2728443 19.2019759
1.5805590 -0.2593092 0.1835210 -0.001696 0.000422 0.001993 -0.7269470 2.5288592 3.7524419 18.9520959 -23.5172893 -43.1208866 19.3844877
1.5237345 -0.2197907 0.1507650 -0.002565 0.000197 0.002250 -0.4733044 1.9074488 3.5885284 15.8340746 -19.9103310 -46.1296845 19.8785558
1.4596563 -0.1810939 0.1259633 -0.003305 -0.000004 0.002505 -0.2610157 1.3892145 3.3395770 12.7026235 -16.3623896 -48.4153694 20.1861414
1.3897517 -0.1440637 0.1087409 -0.003650 -0.000061 0.002683 -0.0996251 1.0167224 3.1812807 9.5885333 -13.0306621 -49.9841042 20.7756729
1.3153404 -0.1093066 0.0984394 -0.003901 -0.000090 0.002751 0.0277216 0.7040598 2.9664880 6.7163719 -9.8970317 -51.0512273 21.1309418
1.2376610 -0.0772350 0.0942312 -0.003942 -0.000083 0.002752 0.1305602 0.4892151 2.9507471 4.0792987 -7.0174755 -51.5902351 21.7152530
1.1579748 -0.0481204 0.0951789 -0.003958 0.000047 0.003817 0.1460382 0.2036645 1.9813615 1.7694252 -4.4562155 -52.7020941 22.0189092
1.0783049 -0.0223009 0.1002228 -0.004066 0.000097 0.002239 0.5038625 0.2312901 5.1173173 -0.1842721 -1.9661096 -51.4852788 22.5782478
1.7758606 0.4334967 0.5585387 0.005126 -0.002395 0.000466 -2.6838026 -7.5257806 0.9409675 31.3581073 39.8084150 -6.3148260 18.4286727
1.7924275 0.4146170 0.4932743 0.004859 -0.002722 0.000439 -2.6573546 -6.7280068 1.8178310 32.9432536 38.3953314 -12.8715952 18.0595679
1.7966458 0.3896897 0.4270728 0.004126 -0.002459 0.000485 -2.3384897 -5.4669714 2.3962523 33.6245872 36.3143545 -19.7932083 17.7393572
1.7879203 0.3590546 0.3623302 0.003041 -0.002085 0.000527 -1.9463020 -4.2852938 2.7242026 33.1351413 33.5379114 -26.4682427 17.6291896
1.7660337 0.3236702 0.3014876 0.001572 -0.001600 0.000630 -1.5516467 -3.2818752 2.8603665 31.6083728 30.1861332 -32.6758386 17.6340065
1.7314916 0.2848871 0.2466974 0.000087 -0.001114 0.000823 -1.2097451 -2.5109195 2.9120558 29.0776739 26.4733260 -38.0682441 17.8607566
1.6854368 0.2442299 0.1995395 -0.001301 -0.000640 0.001129 -0.9219737 -1.9244062 2.9293870 25.8516286 22.5598916 -42.5734095 18.1970310
1.6294286 0.2031765 0.1608964 -0.002413 -0.000308 0.001473 -0.6768956 -1.4654807 2.9249180 22.1595820 18.6668629 -46.0623257 18.6769389
1.5651850 0.1629922 0.1309847 -0.003255 -0.000023 0.001874 -0.4711069 -1.1068618 2.9306505 18.3023910 14.8565785 -48.6548345 19.2132017
1.4943669 0.1246502 0.1094878 -0.003711 0.000030 0.002210 -0.2873480 -0.7953459 2.8733921 14.4729654 11.3412653 -50.4011152 19.8162315
1.4184373 0.0888263 0.0957309 -0.003987 0.000117 0.002513 -0.1345684 -0.5436941 2.8315437 10.8746333 8.0210255 -51.5117346 20.3973061
1.3385840 0.0559491 0.0888366 -0.004035 0.000057 0.002712 -0.0060148 -0.3208363 2.6917103 7.5751183 5.0693201 -52.1275867 20.9961616
1.2556468 0.0262657 0.0878539 -0.004033 0.000080 0.002900 0.0930977 -0.1415717 2.5421298 4.6375984 2.3494559 -52.4129482 21.5522651
1.1698007 -0.0000000 0.0918561 -0.004007 -0.000011 0.002264 0.1874051 -0.0000001 2.6867365 2.0994319 0.0083152 -52.0326027 22.0643182
1.8585975 0.3979631 0.5522807 0.005388 -0.002862 0.000017 -2.4719885 -4.9642756 0.7549720 39.0393349 37.7175093 -7.1242735 16.9095775
1.8739833 0.3729637 0.4810172 0.004770 -0.002670 0.000064 -1.8763442 -3.3730854 1.1196284 40.8809567 35.5789157 -14.7645786 16.3061432
1.8740463 0.3421506 0.4100047 0.003910 -0.002482 -0.000158 -1.2980362 -2.1312822 1.1645561 41.1742389 32.8130141 -22.3105561 16.1589210
1.8588870 0.3061640 0.3420071 0.002363 -0.001945 -0.000216 -0.8244982 -1.2564238 1.0151672 40.0703520 29.3086315 -29.5218817 16.0204928
1.8290464 0.2663175 0.2796645 0.000877 -0.001498 -0.000129 -0.6013089 -0.8623565 0.9797200 37.4849364 25.4021481 -35.8969056 16.3291677
1.7857777 0.2242649 0.2250856 -0.000793 -0.000896 0.000111 -0.5046174 -0.6895361 1.0779471 33.8986640 21.2193197 -41.2610575 16.6285968
1.7308849 0.1816831 0.1795864 -0.002070 -0.000516 0.000499 -0.5098162 -0.6708912 1.4413651 29.5129684 17.0433921 -45.4192847 17.3090923
1.6664104 0.1400309 0.1436498 -0.003152 -0.000177 0.000972 -0.4705181 -0.6013800 1.8100875 24.8581398 12.9985898 -48.4577844 17.8802653
1.5943264 0.1004212 0.1170681 -0.003715 -0.000059 0.001502 -0.4005043 -0.4996499 2.2109971 20.1351352 9.2551134 -50.4812429 18.7192604
1.5163108 0.0636074 0.0991590 -0.004119 0.000059 0.001985 -0.2751341 -0.3340501 2.4148001 15.6985973 5.7931643 -51.7150739 19.3529317
1.4335955 0.0300448 0.0889877 -0.004124 -0.000024 0.002396 -0.1446528 -0.1650149 2.5749095 11.5570511 2.7564144 -52.3213162 20.2046451
1.3468105 -0.0000000 0.0855377 -0.004212 -0.000002 0.002690 -0.0161602 -0.0000001 2.5358599 7.9229955 0.0004782 -52.5003951 20.7575074
1.2556468 -0.0262657 0.0878539 -0.004032 -0.000071 0.002920 0.0926077 0.1408267 2.5287551 4.6378726 -2.3547837 -52.4255837 21.5568627
1.9367092 0.3514653 0.5466160 0.005248 -0.002837 -0.000137 -0.3554918 -0.5128109 0.0964993 47.6923109 34.2922817 -8.0770527 15.1324395
1.9484354 0.3201246 0.4700605 0.004495 -0.002662 -0.000562 0.8315686 1.0585251 -0.4442655 49.3624119 31.4619752 -16.4850251 14.6861165
1.9423814 0.2834246 0.3949623 0.003246 -0.002259 -0.000796 1.5769216 1.7966607 -1.2763808 49.0453394 27.8535891 -24.7837715 14.4881778
1.9191185 0.2425310 0.3246065 0.001653 -0.001809 -0.000998 1.6584729 1.7053213 -1.8558978 46.7874689 23.7681773 -32.3008550 14.6660827
1.8799889 0.1991555 0.2617910 -0.000089 -0.001196 -0.000901 1.2199080 1.1341584 -1.8195533 42.9558530 19.3368826 -38.7549638 15.1017870
1.8270633 0.1551524 0.2084366 -0.001636 -0.000705 -0.000580 0.5732028 0.4781741 -1.1289209 37.9360793 14.8974370 -43.8076806 15.8027482
1.7627859 0.1121770 0.1654418 -0.002858 -0.000270 -0.000029 0.0415621 0.0303276 -0.1091154 32.3683209 10.6096139 -47.5364029 16.6155673
1.6895591 0.0714929 0.1327998 -0.003624 -0.000081 0.000626 -0.2543600 -0.1516812 0.9156734 26.6501798 6.6805460 -50.0013243 17.5419509
1.6094206 0.0339378 0.1098650 -0.004038 0.000037 0.001305 -0.3362131 -0.1319377 1.7535023 21.1527734 3.1107590 -51.4670959 18.4544636
1.5238430 -0.0000000 0.0956350 -0.004183 -0.000002 0.001911 -0.2690568 -0.0000000 2.2658864 16.1091869 0.0013585 -52.1632190 19.3524172
1.4335955 -0.0300448 0.0889877 -0.004119 0.000027 0.002395 -0.1446706 0.1650350 2.5752248 11.5546721 -2.7574122 -52.3207586 20.2043987
1.3385840 -0.0559491 0.0888366 -0.004036 -0.000059 0.002708 -0.0060213 0.3211847 2.6946330 7.5753129 -5.0671042 -52.1253110 20.9942307
2.0072791 0.2926955 0.5413945 0.004907 -0.002670 -0.000455 4.6232780 4.6939437 -1.1423872 56.7136605 29.3386378 -8.9590316 13.2887252
2.0128540 0.2551595 0.4604162 0.003966 -0.002344 -0.000970 6.3401921 5.5273244 -3.1131691 57.7862768 25.6474782 -18.1773251 12.8000257
1.9985396 0.2132498 0.3823770 0.002557 -0.001978 -0.001494 6.4831769 4.8613138 -4.8669623 56.3004586 21.4081124 -26.8971840 12.9456976
1.9655307 0.1686841 0.3109637 0.000811 -0.001325 -0.001675 5.2932394 3.3749520 -5.5431618 52.5777267 16.7812630 -34.6111977 13.2900831
1.9160615 0.1234573 0.2489437 -0.000833 -0.000875 -0.001537 3.3913933 1.7776269 -4.7773121 47.1161747 12.1739661 -40.8520964 14.1594749
1.8529976 0.0794095 0.1978595 -0.002298 -0.000350 -0.001073 1.6604055 0.6580928 -3.1188822 40.6868336 7.6893074 -45.5095088 15.0512012
1.7792763 0.0379514 0.1580798 -0.003228 -0.000171 -0.000331 0.4480181 0.1048778 -1.1345225 33.8918954 3.6468108 -48.6643467 16.2514441
1.6974512 -0.0000000 0.1290912 -0.003883 -0.000001 0.000467 -0.1461846 -0.0000000 0.5149796 27.3036405 0.0003593 -50.5436516 17.2571478
1.6094206 -0.0339378 0.1098650 -0.004040 -0.000034 0.001305 -0.3362044 0.1319343 1.7534569 21.1533473 -3.1117282 -51.4671648 18.4570023
1.5163108 -0.0636074 0.0991590 -0.004120 -0.000057 0.001985 -0.2751251 0.3340391 2.4147210 15.6989876 -5.7946016 -51.7149203 19.3519652
1.4184373 -0.0888264 0.0957309 -0.003992 -0.000119 0.002515 -0.1345211 0.5435026 2.8305469 10.8773339 -8.0205053 -51.5128536 20.3987172
2.0663660 0.2212379 0.5368842 0.004411 -0.002260 -0.000697 12.8410764 8.6552517 -2.9594710 65.1299852 22.5680745 -9.7552288 11.4825253
2.0633762 0.1783855 0.4526538 0.003313 -0.001821 -0.001500 13.9660940 7.6202744 -6.4624472 65.0116124 18.1814130 -19.4840181 11.3193468
2.0388988 0.1328209 0.3731397 0.001852 -0.001315 -0.002009 12.2240015 5.2150187 -8.7349087 61.9686657 13.4754365 -28.4911560 11.6687894
1.9950001 0.0866459 0.3021601 0.000160 -0.000778 -0.002211 8.6673481 2.6484272 -8.7284626 56.5107994 8.7185231 -36.0854460 12.5140859
1.9348225 0.0418585 0.2421868 -0.001341 -0.000246 -0.001894 4.9205850 0.8339102 -6.7391667 49.4343422 4.1232186 -41.9873839 13.6322081
1.8618552 -0.0000000 0.1942238 -0.002520 -0.000001 -0.001238 2.0896218 0.0000000 -3.8644276 41.6572275 0.0004230 -46.0878935 14.9318868
1.7792763 -0.0379514 0.1580798 -0.003225 0.000173 -0.000331 0.4480081 -0.1048755 -1.1344971 33.8907343 -3.6472682 -48.6644615 16.2517593
1.6895591 -0.0714930 0.1327998 -0.003625 0.000082 0.000626 -0.2543606 0.1516815 0.9156755 26.6504925 -6.6804214 -50.0013369 17.5406636