# volRat = 0.650000
# viscRat = 5.000000
# alpha = 1.000000
# shRate = 2.250000
# tnum = 5200
# time = 5.553000
VARIABLES = X, Y, Z, U, V, W, F_B0, F_B1, F_B2, F_0, F_1, F_2, T
ZONE N=2562 E=5120 F=FEPOINT ET=TRIANGLE
1.6598820 0.4671222 0.6212296 0.003022 -0.000579 0.000000 3.2256440 15.0046869 0.0000224 23.8487421 51.7645503 -0.0008523 19.9967669
-1.6598820 0.4671222 0.6212296 -0.003022 -0.000579 0.000000 -3.2256327 15.0046845 0.0000229 -23.8487320 51.7645471 -0.0008519 19.9967668
1.6598819 -0.4671217 0.6212296 0.003009 0.000579 0.000001 3.2256965 -15.0049882 0.0000230 23.8539065 -51.7642898 -0.0010251 19.9989561
-1.6598819 -0.4671217 0.6212296 -0.003009 0.000579 0.000001 -3.2257074 -15.0049893 0.0000224 -23.8539157 -51.7642910 -0.0010255 19.9989558
0.9860311 0.0000000 1.1305748 -0.001866 0.000013 0.000327 -1.8243266 -0.0000280 16.4188110 -2.3263597 -0.0081848 58.5093358 22.6223434
0.9860310 0.0000000 0.1118837 -0.001753 0.000015 0.001391 -2.0968232 0.0000204 -18.8714600 -2.5468007 -0.0058680 -60.9126513 22.6231917
-0.9860311 0.0000000 1.1305748 0.001866 0.000013 0.000327 1.8243272 0.0000247 16.4188157 2.3263601 -0.0081547 58.5093400 22.6223433
-0.9860310 0.0000000 0.1118837 0.001753 0.000015 0.001391 2.0968235 0.0000337 -18.8714618 2.5468007 -0.0058601 -60.9126529 22.6231917
-0.0000000 0.3406841 0.8361449 0.000000 0.000795 0.001027 0.0000238 -86.4174754 -49.2554572 0.0000227 -32.9330720 -14.7550275 25.6255250
-0.0000000 -0.3406832 0.8361444 0.000000 0.000026 0.000447 0.0000026 76.5123257 -43.6048798 0.0000024 23.1823536 -9.1459283 25.6644377
-0.0000000 0.3406846 0.4063144 0.000000 0.000023 -0.000619 0.0000005 -85.1548967 48.5353934 0.0000004 -31.7153557 14.0636696 25.6078147
-0.0000000 -0.3406838 0.4063148 0.000000 0.000650 -0.000116 0.0000028 75.5061478 43.0314032 0.0000025 22.2134321 8.5931426 25.6493837
1.6825027 0.4603197 0.6755656 0.004268 -0.000928 -0.000137 -3.0669001 -12.9384692 -1.2437836 23.0076525 39.0473099 4.7283249 19.8155492
1.6989124 0.4470229 0.7347233 0.004084 -0.000952 -0.000169 -2.3567492 -9.0236347 -1.9836310 24.9141486 40.0367951 10.9685316 19.3759703
1.7063103 0.4273815 0.7963097 0.003704 -0.000880 -0.000228 -2.2317297 -7.9184193 -2.8353205 25.5372847 38.4849594 17.1171842 19.2135276
1.7028685 0.4017488 0.8576441 0.002641 -0.000603 -0.000183 -1.9787369 -6.6534776 -3.4347431 25.6081654 36.3928607 23.3152325 18.9126123
1.6877021 0.3708031 0.9164241 0.001641 -0.000314 -0.000140 -1.6974508 -5.5465253 -3.8795613 24.7200936 33.5968649 29.1559459 18.9364565
1.6606891 0.3356104 0.9705487 0.000380 0.000068 -0.000100 -1.3482515 -4.4072642 -4.0328266 23.1270165 30.3698464 34.4845577 18.8876624
1.6223678 0.2974942 1.0183312 -0.000694 0.000372 -0.000064 -1.0141693 -3.4373019 -4.0337782 20.8273767 26.8589498 39.0631124 19.1467716
1.5737795 0.2578672 1.0586334 -0.001720 0.000644 -0.000059 -0.7079896 -2.6115480 -3.8937213 18.1051098 23.1787578 42.8199815 19.3279422
1.5162729 0.2180618 1.0909114 -0.002307 0.000740 -0.000063 -0.4542043 -1.9668141 -3.7228998 15.0561667 19.5562130 45.7264831 19.8008947
1.4513154 0.1792100 1.1151615 -0.002740 0.000785 -0.000097 -0.2427247 -1.4306037 -3.4653761 12.0126825 16.0280046 47.9103070 20.1119117
1.3803540 0.1421841 1.1318018 -0.002758 0.000700 -0.000126 -0.0823062 -1.0470985 -3.3067110 9.0050231 12.7105409 49.3860621 20.6812195
1.3047467 0.1075972 1.1415423 -0.002658 0.000549 -0.000144 0.0432577 -0.7223070 -3.0765666 6.2526272 9.6387572 50.3913959 21.0397124
1.2257931 0.0758454 1.1452668 -0.002331 0.000386 -0.000159 0.1430994 -0.4968313 -3.0340313 3.7444578 6.8124018 50.9094394 21.6078470
1.1448414 0.0471628 1.1439690 -0.002066 0.000249 -0.000176 0.2172746 -0.2949032 -2.9083313 1.6383294 4.2275270 51.1840280 21.9135932
1.0640374 0.0218300 1.1387559 -0.001687 0.000014 -0.000155 0.5384298 -0.2463840 -5.5288182 -0.2004730 1.8960659 50.4292408 22.4520911
1.7707912 -0.4343327 0.6841181 0.004065 0.001256 -0.000290 -2.7217133 7.9516573 -0.9954430 30.2816027 -39.6063940 6.2992010 18.4247975
1.7877527 -0.4155038 0.7495677 0.003831 0.001345 -0.000015 -2.6753076 7.0402799 -1.9038404 31.9162287 -38.3330164 12.8875565 18.0511690
1.7922233 -0.3904717 0.8159160 0.003041 0.001202 0.000144 -2.3686370 5.7475903 -2.5210950 32.6197447 -36.2729399 19.8122030 17.7305169
1.7835957 -0.3595872 0.8807335 0.001984 0.000930 0.000287 -1.9846422 4.5331833 -2.8843291 32.1430844 -33.4634805 26.4848115 17.6092487
1.7616291 -0.3238429 0.9415458 0.000616 0.000529 0.000429 -1.5878380 3.4855963 -3.0418505 30.6309959 -30.0705387 32.6511996 17.6084256
1.7268097 -0.2846430 0.9961753 -0.000699 0.000113 0.000488 -1.2357272 2.6663375 -3.0984125 28.1210012 -26.3011165 37.9879470 17.8167573
1.6802701 -0.2435757 1.0430332 -0.001852 -0.000252 0.000479 -0.9362293 2.0382397 -3.1117756 24.9206379 -22.3532704 42.3943065 18.1517349
1.6235669 -0.2021821 1.0812471 -0.002680 -0.000491 0.000410 -0.6805796 1.5460517 -3.0985834 21.2674367 -18.4208074 45.7775669 18.6121105
1.5584223 -0.1617801 1.1106277 -0.003212 -0.000630 0.000298 -0.4661183 1.1616375 -3.0930387 17.4765999 -14.6169599 48.2424797 19.1473066
1.4865111 -0.1233782 1.1315325 -0.003314 -0.000562 0.000187 -0.2768848 0.8312964 -3.0252484 13.7239613 -11.1045225 49.8783314 19.7338830
1.4093245 -0.0876665 1.1446849 -0.003233 -0.000482 0.000068 -0.1207240 0.5656451 -2.9726854 10.2356768 -7.8394442 50.8854332 20.3158763
1.3281004 -0.0550638 1.1510165 -0.002903 -0.000312 -0.000024 0.0085327 0.3335971 -2.8292423 7.0553638 -4.9197102 51.4290344 20.8936973
1.2437591 -0.0257854 1.1515341 -0.002517 -0.000156 -0.000090 0.1063201 0.1460965 -2.6558928 4.2614289 -2.3034363 51.6875300 21.4522457
1.1565928 0.0000000 1.1472221 -0.002062 -0.000008 -0.000150 0.1614392 0.0000011 -2.2705940 1.8318796 0.0053475 51.8607871 21.9433001
1.8552102 -0.3993566 0.6904254 0.003972 0.001805 0.000162 -2.5529884 5.2967709 -0.8056751 38.0801769 -37.8271097 7.1567646 16.9082569
1.8709962 -0.3743491 0.7619298 0.003252 0.001706 0.000304 -1.9964336 3.7013567 -1.2284655 39.9514678 -35.7025292 14.8281554 16.3151428
1.8712460 -0.3433528 0.8331343 0.002376 0.001611 0.000675 -1.4230200 2.4075424 -1.3153284 40.2634179 -32.9196132 22.4144803 16.1457161
1.8560560 -0.3070395 0.9012285 0.000875 0.001144 0.000942 -0.9427391 1.4801787 -1.1960549 39.1670397 -29.3718549 29.6246262 16.0107178
1.8259583 -0.2667780 0.9635320 -0.000442 0.000742 0.001080 -0.7006160 1.0360892 -1.1777651 36.5664757 -25.3910934 35.9673584 16.2984333
1.7822055 -0.2242929 1.0179131 -0.001895 0.000206 0.001115 -0.5790011 0.8173984 -1.2795379 32.9733402 -21.1510734 41.2532490 16.5999074
1.7266090 -0.1813330 1.0630578 -0.002875 -0.000109 0.001024 -0.5598654 0.7638028 -1.6448999 28.5826249 -16.9137672 45.2953661 17.2584719
1.6612226 -0.1394186 1.0985081 -0.003627 -0.000332 0.000865 -0.4976224 0.6632445 -2.0037388 23.9528286 -12.8552576 48.1984755 17.8359736
1.5880328 -0.0997051 1.1245123 -0.003816 -0.000344 0.000631 -0.4094458 0.5381217 -2.3939335 19.2751159 -9.1026557 50.0802327 18.6529077
1.5087393 -0.0629659 1.1418022 -0.003848 -0.000318 0.000403 -0.2712975 0.3540261 -2.5774613 14.9247218 -5.6809376 51.1909205 19.2911231
1.4246140 -0.0296519 1.1513651 -0.003449 -0.000110 0.000193 -0.1332510 0.1726573 -2.7185084 10.8876562 -2.6844713 51.6939336 20.1208727
1.3363547 0.0000000 1.1542723 -0.003128 0.000004 0.000026 -0.0024720 0.0000012 -2.6459911 7.3920825 -0.0027585 51.8257299 20.6785778
1.2437591 0.0257855 1.1515341 -0.002517 0.000160 -0.000093 0.1062008 -0.1459300 -2.6529139 4.2597528 2.3017094 51.6902471 21.4491233
1.9349359 -0.3532548 0.6961522 0.003354 0.002134 0.000289 -0.5503895 0.8153063 -0.1533145 46.8918126 -34.5600298 8.1409771 15.1270251
1.9470193 -0.3218062 0.7730168 0.002503 0.002065 0.000848 0.6246606 -0.8155127 0.3419738 48.6146514 -31.7307872 16.6245324 14.6723342
1.9410409 -0.2848223 0.8483586 0.001263 0.001727 0.001236 1.3811901 -1.6132562 1.1451489 48.3086529 -28.0789675 24.9802761 14.4702344
1.9175733 -0.2435243 0.9188287 -0.000208 0.001298 0.001611 1.4840860 -1.5649314 1.7022277 46.0178770 -23.9085371 32.5157369 14.6346644
1.8779717 -0.1997019 0.9815846 -0.001737 0.000722 0.001761 1.0739111 -1.0251117 1.6446797 42.1322434 -19.3964449 38.9205412 15.0677052
1.8243323 -0.1552922 1.0346926 -0.002978 0.000272 0.001718 0.4591330 -0.3941487 0.9313735 37.0520358 -14.8790731 43.8723937 15.7588474
1.7591274 -0.1120218 1.0772738 -0.003849 -0.000076 0.001497 -0.0373345 0.0281409 -0.1014540 31.4516473 -10.5537575 47.4547923 16.5704804
1.6847839 -0.0712041 1.1093778 -0.004214 -0.000176 0.001170 -0.2998430 0.1858393 -1.1257771 25.7314500 -6.6065943 49.7599780 17.4840302
1.6033620 -0.0337011 1.1317031 -0.004228 -0.000154 0.000813 -0.3537980 0.1458189 -1.9480205 20.2823972 -3.0698173 51.0683704 18.3963693
1.5163647 0.0000001 1.1453071 -0.003935 -0.000002 0.000474 -0.2680002 0.0000010 -2.4363865 15.3144024 0.0017922 51.6334921 19.2779824
1.4246140 0.0296520 1.1513652 -0.003452 0.000111 0.000192 -0.1332426 -0.1726440 -2.7183370 10.8895734 2.6850261 51.6943501 20.1241249
1.3281004 0.0550639 1.1510165 -0.002901 0.000307 -0.000023 0.0085347 -0.3336722 -2.8299016 7.0549466 4.9255219 51.4274420 20.8938732
2.0070273 -0.2946370 0.7014509 0.002522 0.002306 0.000563 4.3914064 -4.5584068 1.1078637 56.1784470 -29.7278538 9.0682975 13.2687331
2.0128551 -0.2568632 0.7828119 0.001505 0.002048 0.001178 6.1354047 -5.4644313 3.0732734 57.3064423 -25.9995315 18.4057735 12.7767921
1.9984415 -0.2145652 0.8611387 0.000169 0.001700 0.001833 6.2972303 -4.8238982 4.8231807 55.7842301 -21.6689677 27.2043302 12.9062405
1.9650007 -0.1695438 0.9326666 -0.001389 0.001058 0.002197 5.1191317 -3.3369316 5.4756117 51.9740038 -16.9435786 34.9330697 13.2570594
1.9148122 -0.1238882 0.9945887 -0.002722 0.000614 0.002305 3.2280836 -1.7326504 4.6550741 46.3853491 -12.2356739 41.1059810 14.1147013
1.8507958 -0.0795208 1.0453689 -0.003824 0.000148 0.002155 1.5228604 -0.6197547 2.9390262 39.8508268 -7.6947349 45.6268272 15.0148043
1.7759349 -0.0379097 1.0846802 -0.004307 0.000057 0.001758 0.3524158 -0.0850738 0.9219977 32.9823771 -3.6284418 48.6098984 16.2035688
1.6928151 0.0000001 1.1130951 -0.004522 0.000001 0.001311 -0.1979351 0.0000003 -0.7264165 26.3878454 -0.0006783 50.3155534 17.2136629
1.6033620 0.0337013 1.1317031 -0.004223 0.000157 0.000813 -0.3538267 -0.1458292 -1.9481790 20.2801806 3.0690791 51.0682516 18.3942999
1.5087393 0.0629660 1.1418022 -0.003850 0.000323 0.000402 -0.2712934 -0.3540187 -2.5774226 14.9251568 5.6775309 51.1914986 19.2903414
1.4093245 0.0876666 1.1446850 -0.003229 0.000486 0.000068 -0.1207229 -0.5656369 -2.9726560 10.2337180 7.8372624 50.8856671 20.3129256
2.0674661 -0.2230109 0.7060459 0.001558 0.002138 0.000773 12.7390972 -8.7520805 2.9869777 64.9221786 -22.9746708 9.9098139 11.4338661
2.0645486 -0.1797883 0.7907236 0.000452 0.001721 0.001646 13.9060810 -7.7314335 6.5445984 64.8107391 -18.5008275 19.7895930 11.2610141
2.0397298 -0.1337642 0.8705464 -0.000859 0.001203 0.002271 12.1413948 -5.2801796 8.8296997 61.6648461 -13.6821186 28.8892673 11.6102259
1.9951311 -0.0871446 0.9416156 -0.002257 0.000665 0.002664 8.5323016 -2.6608246 8.7590627 56.0294560 -8.8189764 36.4828108 12.4568689
1.9339773 -0.0420211 1.0014380 -0.003368 0.000167 0.002620 4.7586682 -0.8247898 6.6623711 48.7636622 -4.1513727 42.2874071 13.5841633
1.8598348 0.0000001 1.0490418 -0.004057 -0.000000 0.002280 1.9596910 -0.0000013 3.7206396 40.8497319 0.0004272 46.2507378 14.8832095
1.7759349 0.0379099 1.0846802 -0.004311 -0.000056 0.001759 0.3524591 0.0850836 0.9221109 32.9839192 3.6285272 48.6098894 16.2053080
1.6847839 0.0712043 1.1093778 -0.004214 0.000176 0.001171 -0.2998422 -0.1858379 -1.1257741 25.7315472 6.6082174 49.7596167 17.4842311
1.5880328 0.0997052 1.1245124 -0.003820 0.000343 0.000631 -0.4094233 -0.5380903 -2.3938025 19.2770381 9.1041897 50.0800899 18.6553209
1.4865111 0.1233784 1.1315326 -0.003312 0.000559 0.000188 -0.2768955 -0.8313258 -3.0253650 13.7232981 11.1079349 49.8770668 19.7350966
2.1115846 -0.1395316 0.7095057 0.000655 0.001527 0.000961 22.6767458 -8.8915531 5.0667468 71.7918715 -14.5022662 10.5119387 9.9066560
2.0978560 -0.0927461 0.7959448 -0.000314 0.000994 0.001877 21.4362657 -5.7321841 9.7224172 69.9820901 -9.6155801 20.7174184 10.0287671
2.0614415 -0.0454938 0.8755774 -0.001471 0.000452 0.002548 16.2725858 -2.2955623 11.5347235 64.8991087 -4.6855080 29.7570650 10.8967563
2.0054885 0.0000001 0.9447238 -0.002551 -0.000000 0.002787 10.0094896 -0.0000035 10.1370174 57.4694714 0.0001390 37.0553790 12.0351028
1.9339773 0.0420214 1.0014380 -0.003365 -0.000165 0.002618 4.7586242 0.8247777 6.6623096 48.7623585 4.1509868 42.2878566 13.5832310
1.8507958 0.0795210 1.0453689 -0.003824 -0.000147 0.002155 1.5228542 0.6197502 2.9390143 39.8508941 7.6940818 45.6268912 15.0143643
1.7591274 0.1120220 1.0772739 -0.003845 0.000079 0.001496 -0.0373680 -0.0281662 -0.1015452 31.4501162 10.5529322 47.4550670 16.5688878
1.6612227 0.1394188 1.0985082 -0.003627 0.000335 0.000864 -0.4976226 -0.6632432 -2.0037397 23.9526663 12.8534567 48.1991959 17.8352604
1.5584223 0.1617803 1.1106278 -0.003209 0.000635 0.000296 -0.4661266 -1.1616556 -3.0930940 17.4753000 14.6145277 48.2432609 19.1446134
2.1350062 -0.0475494 0.7113811 0.000107 0.000551 0.001074 29.7309986 -3.7906217 6.4857782 75.5274434 -4.9412397 10.8122232 9.0357809
2.1093934 0.0000002 0.7977774 -0.000630 0.000001 0.002010 24.5290684 -0.0000054 10.9897240 71.7822309 -0.0000524 21.0037162 9.6759867
2.0614415 0.0454941 0.8755774 -0.001473 -0.000451 0.002550 16.2726301 2.2955597 11.5347552 64.8997557 4.6853856 29.7567207 10.8973181
1.9951311 0.0871449 0.9416157 -0.002258 -0.000664 0.002664 8.5323138 2.6608223 8.7590757 56.0296713 8.8189724 36.4826467 12.4569796
1.9148122 0.1238884 0.9945888 -0.002726 -0.000613 0.002306 3.2281337 1.7326741 4.6551467 46.3865273 12.2362206 41.1055434 14.1158456
1.8243323 0.1552925 1.0346927 -0.002978 -0.000271 0.001718 0.4591419 0.3941557 0.9313917 37.0518993 14.8798075 43.8721415 15.7594841
1.7266091 0.1813332 1.0630579 -0.002879 0.000109 0.001026 -0.5598348 -0.7637599 -1.6448104 28.5843669 16.9149173 45.2947839 17.2601496
1.6235669 0.2021823 1.0812472 -0.002679 0.000489 0.000412 -0.6805838 -1.5460589 -3.0986032 21.2670999 18.4229466 45.7763288 18.6133697
2.1350062 0.0475497 0.7113811 0.000108 -0.000549 0.001072 29.7309918 3.7906093 6.4857769 75.5272176 4.9410606 10.8128448 9.0355623
2.0978560 0.0927465 0.7959448 -0.000314 -0.000995 0.001877 21.4362621 5.7321734 9.7224161 69.9819632 9.6159045 20.7173073 10.0286165
2.0397299 0.1337645 0.8705464 -0.000856 -0.001202 0.002269 12.1413695 5.2801616 8.8296820 61.6642014 13.6819188 28.8897979 11.6097287
1.9650007 0.1695441 0.9326667 -0.001387 -0.001058 0.002197 5.1191164 3.3369176 5.4755959 51.9735534 16.9435208 34.9333207 13.2566204
1.8779718 0.1997022 0.9815847 -0.001735 -0.000718 0.001759 1.0738812 1.0250819 1.6446341 42.1315499 19.3954385 38.9211570 15.0664834
1.7822055 0.2242932 1.0179132 -0.001894 -0.000205 0.001115 -0.5790131 -0.8174145 -1.2795647 32.9729316 21.1504181 41.2537236 16.5989609
1.6802702 0.2435760 1.0430333 -0.001849 0.000257 0.000476 -0.9362412 -2.0382631 -3.1118156 24.9195020 22.3514348 42.3955330 18.1499682
2.1115846 0.1395320 0.7095057 0.000654 -0.001526 0.000964 22.6767813 8.8915577 5.0667551 71.7921686 14.5022667 10.5114297 9.9069398
2.0645487 0.1797887 0.7907237 0.000452 -0.001719 0.001646 13.9061049 7.7314399 6.5446104 64.8109117 18.5006205 19.7896730 11.2611655
1.9984415 0.2145655 0.8611388 0.000166 -0.001699 0.001836 6.2972787 4.8239312 4.8232184 55.7851950 21.6691192 27.2036156 12.9069209
1.9175734 0.2435247 0.9188288 -0.000208 -0.001297 0.001611 1.4841062 1.5649515 1.7022512 46.0179853 23.9089400 32.5153951 14.6352607
1.8259583 0.2667783 0.9635321 -0.000445 -0.000742 0.001082 -0.7005783 -1.0360326 -1.1777020 36.5674759 25.3920105 35.9666175 16.2999677
1.7268098 0.2846433 0.9961754 -0.000699 -0.000112 0.000489 -1.2357209 -2.6663216 -3.0983973 28.1212744 26.3020112 37.9870295 17.8176840
2.0674662 0.2230113 0.7060460 0.001558 -0.002136 0.000771 12.7391031 8.7520787 2.9869795 64.9221559 22.9744392 9.9102597 11.4337212
2.0128552 0.2568636 0.7828119 0.001508 -0.002048 0.001178 6.1353784 5.4644045 3.0732607 57.3056970 25.9998922 18.4058707 12.7763444
1.9410410 0.2848227 0.8483587 0.001265 -0.001725 0.001233 1.3811738 1.6132362 1.1451357 48.3081405 28.0783988 24.9812440 14.4696095
1.8560561 0.3070399 0.9012286 0.000877 -0.001143 0.000942 -0.9427690 -1.4802246 -1.1960930 39.1665670 29.3714199 29.6250350 16.0095207
1.7616291 0.3238432 0.9415459 0.000619 -0.000525 0.000426 -1.5878536 -3.4856280 -3.0418810 30.6302905 30.0694606 32.6523904 17.6071678
2.0070274 0.2946374 0.7014510 0.002521 -0.002304 0.000566 4.3914423 4.5584417 1.1078729 56.1789199 29.7278589 9.0677428 13.2691199
1.9470194 0.3218066 0.7730169 0.002501 -0.002063 0.000849 0.6246843 0.8155432 0.3419868 48.6153309 31.7306240 16.6242104 14.6726418
1.8712461 0.3433532 0.8331344 0.002373 -0.001611 0.000678 -1.4229793 -2.4074722 -1.3152910 40.2641462 32.9203090 22.4133982 16.1469775
1.7835958 0.3595876 0.8807336 0.001984 -0.000929 0.000287 -1.9846245 -4.5331402 -2.8843040 32.1433635 33.4639417 26.4841836 17.6102270
1.9349360 0.3532552 0.6961522 0.003354 -0.002132 0.000286 -0.5503888 -0.8153048 -0.1533143 46.8916175 34.5599518 8.1418236 15.1270143
1.8709963 0.3743496 0.7619299 0.003256 -0.001706 0.000303 -1.9964776 -3.7014366 -1.2284929 39.9501722 35.7025194 14.8286578 16.3140783
1.7922234 0.3904721 0.8159161 0.003042 -0.001199 0.000140 -2.3686515 -5.7476224 -2.5211110 32.6197353 36.2720981 19.8135931 17.7295111
1.8552103 0.3993571 0.6904254 0.003969 -0.001804 0.000166 -2.5529573 -5.2967040 -0.8056654 38.0812219 37.8271498 7.1555591 16.9089305
1.7877528 0.4155043 0.7495678 0.003828 -0.001343 -0.000014 -2.6752871 -7.0402227 -1.9038263 31.9169205 38.3332388 12.8869245 18.0519601
1.7707913 0.4343331 0.6841182 0.004066 -0.001255 -0.000295 -2.7217167 -7.9516635 -0.9954444 30.2815065 39.6061962 6.3006401 18.4247858
1.7403077 0.4478226 0.6212296 0.003887 -0.001055 0.000008 -2.9451423 -9.9565423 -0.0000125 27.6764888 40.3164197 -0.0030396 19.0301047
1.8230565 0.4187261 0.6212295 0.004021 -0.001561 -0.000012 -2.7111579 -6.4862821 -0.0000076 34.9236038 39.0665514 0.0045072 17.4517470
1.9045416 0.3788659 0.6212294 0.003672 -0.001973 0.000005 -1.7401369 -2.9946397 -0.0000033 43.3286790 36.5608003 -0.0015919 15.9127580
1.9808312 0.3268204 0.6212293 0.003077 -0.002287 0.000000 1.8448561 2.2607578 0.0000024 52.5416300 32.5891791 -0.0005545 13.9746643
2.0479478 0.2616305 0.6212293 0.002185 -0.002275 -0.000004 8.9963901 7.5704321 0.0000079 61.9000579 26.7701521 0.0014310 12.1380856
2.1012192 0.1835595 0.6212292 0.001272 -0.001896 0.000000 19.2849006 10.1687552 0.0000120 70.0577770 19.0584781 -0.0003042 10.3133793
2.1357936 0.0948416 0.6212292 0.000550 -0.001097 0.000003 29.0352345 7.3782456 0.0000140 75.5605855 9.8749025 -0.0010407 9.1230361
2.1478165 0.0000002 0.6212291 0.000272 -0.000001 -0.000006 33.2169553 -0.0000061 0.0000146 77.5031721 0.0002464 0.0017926 8.5695106
2.1357936 -0.0948413 0.6212292 0.000550 0.001099 0.000003 29.0352216 -7.3782532 0.0000140 75.5604784 -9.8751785 -0.0009290 9.1229402
2.1012192 -0.1835592 0.6212292 0.001270 0.001895 0.000001 19.2849144 -10.1687704 0.0000120 70.0581870 -19.0580836 -0.0003948 10.3136919
2.0479477 -0.2616301 0.6212293 0.002186 0.002276 -0.000003 8.9963635 -7.5704140 0.0000079 61.8997683 -26.7703121 0.0013565 12.1378783
1.9808311 -0.3268200 0.6212293 0.003074 0.002287 0.000000 1.8448929 -2.2608040 0.0000024 52.5425177 -32.5889290 -0.0003795 13.9752855
1.9045415 -0.3788655 0.6212294 0.003673 0.001975 0.000005 -1.7401576 2.9946768 -0.0000033 43.3279312 -36.5609911 -0.0016408 15.9125372
1.8230564 -0.4187256 0.6212295 0.004015 0.001560 -0.000011 -2.7111072 6.4861634 -0.0000076 34.9259717 -39.0662158 0.0040785 17.4528173
1.7403076 -0.4478221 0.6212296 0.003893 0.001058 0.000007 -2.9451656 9.9566255 -0.0000125 27.6738243 -40.3167740 -0.0024649 19.0300472
1.6825027 -0.4603194 0.5668936 0.004263 0.000927 0.000135 -3.0669522 12.9386974 1.2437710 23.0104862 -39.0458890 -4.7260178 19.8108464
1.6989124 -0.4470227 0.5077359 0.004090 0.000956 0.000169 -2.3566963 9.0234396 1.9835630 24.9116016 -40.0384071 -10.9679421 19.3802933
1.7063103 -0.4273815 0.4461494 0.003709 0.000878 0.000237 -2.2317851 7.9186245 2.8353704 25.5351368 -38.4831724 -17.1211395 19.2117448
1.7028685 -0.4017489 0.3848149 0.002626 0.000606 0.000173 -1.9786912 6.6533326 3.4346462 25.6141040 -36.3941057 -23.3107658 18.9117709
1.6877021 -0.3708034 0.3260348 0.001651 0.000315 0.000144 -1.6974966 5.5466835 3.8796508 24.7160416 -33.5960143 -29.1578870 18.9356684
1.6606892 -0.3356107 0.2719100 0.000379 -0.000067 0.000101 -1.3482295 4.4072006 4.0327483 23.1271883 -30.3701067 -34.4845196 18.8926230
1.6223678 -0.2974946 0.2241274 -0.000700 -0.000371 0.000062 -1.0141886 3.4373744 4.0338437 20.8302929 -26.8581244 -39.0626404 19.1381495
1.5737796 -0.2578676 0.1838250 -0.001721 -0.000640 0.000056 -0.7079816 2.6115243 3.8936669 18.1053232 -23.1812246 -42.8186585 19.3347439
1.5162729 -0.2180622 0.1515469 -0.002295 -0.000744 0.000066 -0.4542277 1.9669197 3.7230802 15.0505808 -19.5526880 -45.7285795 19.7997102
1.4513154 -0.1792104 0.1272967 -0.002759 -0.000776 0.000092 -0.2426702 1.4302846 3.4645836 12.0214431 -16.0334581 -47.9082535 20.1095631
1.3803540 -0.1421844 0.1106562 -0.002747 -0.000705 0.000124 -0.0823980 1.0482636 3.3103687 8.9999063 -12.7044765 -49.3846311 20.6798699
1.3047467 -0.1075974 0.1009156 -0.002660 -0.000539 0.000149 0.0430519 0.7188923 3.0619999 6.2526117 -9.6490559 -50.4037704 21.0508774
1.2257930 -0.0758456 0.0971911 -0.002345 -0.000383 0.000127 0.1449921 0.5034079 3.0741660 3.7510264 -6.8008301 -50.8714694 21.5914922
1.1448412 -0.0471629 0.0984888 -0.002089 -0.000245 0.000170 0.2117315 0.2873848 2.8341499 1.6450888 -4.2414300 -51.2575029 21.9276988
1.0640371 -0.0218300 0.1037018 -0.001662 -0.000016 0.000098 0.5514983 0.2523974 5.6631376 -0.2015994 -1.8752566 -50.2996359 22.4552942
1.7707913 0.4343333 0.5583409 0.004063 -0.001254 0.000301 -2.7216693 -7.9515268 0.9954078 30.2817544 39.6066543 -6.3024839 18.4267843
1.7877529 0.4155046 0.4928912 0.003820 -0.001342 0.000006 -2.6753118 -7.0402908 1.9038271 31.9209309 38.3325710 -12.8831035 18.0491598
1.7922235 0.3904725 0.4265427 0.003048 -0.001200 -0.000135 -2.3686315 -5.7475780 2.5210763 32.6171770 36.2726956 -19.8158060 17.7322336
1.7835959 0.3595881 0.3617251 0.001988 -0.000927 -0.000283 -1.9846484 -4.5331990 2.8843282 32.1416260 33.4633446 -26.4857463 17.6106746
1.7616292 0.3238438 0.3009126 0.000609 -0.000525 -0.000431 -1.5878444 -3.4856116 3.0418549 30.6343323 30.0698403 -32.6502257 17.6045556
1.7268099 0.2846439 0.2462830 -0.000690 -0.000112 -0.000486 -1.2357421 -2.6663707 3.0984437 28.1177180 26.3020664 -37.9882345 17.8189210
1.6802703 0.2435766 0.1994249 -0.001843 0.000259 -0.000474 -0.9362438 -2.0382715 3.1118183 24.9173825 22.3509325 -42.3962915 18.1531932
1.6235670 0.2021828 0.1612109 -0.002684 0.000489 -0.000415 -0.6806017 -1.5461015 3.0986786 21.2702122 18.4229748 -45.7752678 18.6059409
1.5584223 0.1617807 0.1318302 -0.003204 0.000636 -0.000297 -0.4661178 -1.1616349 3.0930290 17.4733429 14.6148294 -48.2435554 19.1492912
1.4865111 0.1233788 0.1109253 -0.003296 0.000561 -0.000189 -0.2769516 -0.8314945 3.0259688 13.7168404 11.1072148 -49.8766381 19.7353831
1.4093244 0.0876669 0.0977729 -0.003244 0.000483 -0.000069 -0.1206485 -0.5652863 2.9708038 10.2412189 7.8394375 -50.8866698 20.3064403
1.3281003 0.0550641 0.0914412 -0.002881 0.000315 0.000015 0.0085557 -0.3345169 2.8370558 7.0461772 4.9212732 -51.4203102 20.8936345
1.2437590 0.0257856 0.0909236 -0.002503 0.000148 0.000093 0.1055646 -0.1450567 2.6370348 4.2532398 2.3112566 -51.7050089 21.4556642
1.1565926 0.0000000 0.0952356 -0.002073 -0.000005 0.000038 0.1670321 0.0000008 2.3492487 1.8379635 0.0030426 -51.7823818 21.9220416
1.8552103 0.3993572 0.5520335 0.003974 -0.001804 -0.000158 -2.5530049 -5.2968041 0.8056684 38.0795943 37.8266961 -7.1596917 16.9083166
1.8709963 0.3743498 0.4805289 0.003258 -0.001707 -0.000303 -1.9964587 -3.7014034 1.2284729 39.9489435 35.7032698 -14.8286902 16.3154431
1.8712462 0.3433536 0.4093243 0.002366 -0.001610 -0.000687 -1.4230166 -2.4075371 1.3153202 40.2672565 32.9198143 -22.4102190 16.1437979
1.8560562 0.3070404 0.3412299 0.000881 -0.001144 -0.000941 -0.9427540 -1.4802025 1.1960706 39.1650280 29.3719886 -29.6259732 16.0118500
1.8259585 0.2667788 0.2789263 -0.000442 -0.000742 -0.001081 -0.7006003 -1.0360664 1.1777365 36.5660770 25.3916652 -35.9673425 16.3006096
1.7822057 0.2242937 0.2245450 -0.001906 -0.000207 -0.001122 -0.5789925 -0.8173865 1.2795170 32.9779505 21.1508465 -41.2515577 16.5961657
1.7266092 0.1813337 0.1794002 -0.002874 0.000108 -0.001025 -0.5598439 -0.7637733 1.6448344 28.5822436 16.9150067 -45.2955822 17.2619069
1.6612228 0.1394192 0.1439498 -0.003626 0.000335 -0.000864 -0.4976002 -0.6632144 2.0036467 23.9520487 12.8535643 -48.1995930 17.8393817
1.5880328 0.0997055 0.1179455 -0.003831 0.000342 -0.000634 -0.4094296 -0.5380991 2.3938346 19.2819536 9.1040153 -50.0794018 18.6486205
1.5087394 0.0629662 0.1006556 -0.003851 0.000324 -0.000402 -0.2712608 -0.3539763 2.5771058 14.9255281 5.6773851 -51.1922674 19.2966822
1.4246140 0.0296521 0.0910926 -0.003443 0.000108 -0.000194 -0.1332669 -0.1726751 2.7188176 10.8853840 2.6849801 -51.6941625 20.1274133
1.3363546 0.0000000 0.0881855 -0.003158 0.000005 -0.000026 -0.0024695 0.0000012 2.6425581 7.4068452 -0.0032756 -51.8295666 20.6738892
1.2437590 -0.0257855 0.0909237 -0.002502 -0.000147 0.000085 0.1058647 0.1454716 2.6445265 4.2541970 -2.3114429 -51.6979110 21.4590549
1.9349360 0.3532553 0.5463065 0.003349 -0.002132 -0.000298 -0.5503517 -0.8152501 0.1533022 46.8933951 34.5602070 -8.1370569 15.1271111
1.9470195 0.3218069 0.4694417 0.002505 -0.002062 -0.000841 0.6246556 0.8155062 -0.3419694 48.6141206 31.7300485 -16.6273595 14.6728291
1.9410411 0.2848230 0.3940998 0.001268 -0.001725 -0.001230 1.3811996 1.6132675 -1.1451536 48.3070116 28.0789666 -24.9822354 14.4713218
1.9175735 0.2435251 0.3236295 -0.000213 -0.001296 -0.001616 1.4840761 1.5649213 -1.7022130 46.0203646 23.9084656 -32.5133871 14.6319735
1.8779719 0.1997026 0.2608735 -0.001729 -0.000718 -0.001756 1.0738910 1.0250926 -1.6446465 42.1295768 19.3957786 -38.9224920 15.0688391
1.8243325 0.1552928 0.2077654 -0.002970 -0.000270 -0.001715 0.4591112 0.3941299 -0.9313282 37.0491524 14.8794949 -43.8730505 15.7599931
1.7591276 0.1120223 0.1651841 -0.003854 0.000079 -0.001501 -0.0373668 -0.0281652 0.1015417 31.4539961 10.5531883 -47.4536254 16.5651112
1.6847840 0.0712045 0.1330801 -0.004203 0.000176 -0.001170 -0.2998719 -0.1858566 1.1258842 25.7277260 6.6079980 -49.7601492 17.4851530
1.6033620 0.0337014 0.1107548 -0.004217 0.000156 -0.000813 -0.3538275 -0.1458297 1.9481800 20.2776133 3.0698642 -51.0686358 18.3974540
1.5163648 0.0000001 0.0971507 -0.003941 -0.000001 -0.000477 -0.2680268 0.0000010 2.4366223 15.3176991 0.0013418 -51.6323503 19.2683575
1.4246140 -0.0296520 0.0910927 -0.003439 -0.000109 -0.000194 -0.1332674 0.1726782 2.7188290 10.8831492 -2.6839487 -51.6940189 20.1250404
1.3281003 -0.0550640 0.0914413 -0.002884 -0.000322 0.000017 0.0085497 0.3342866 2.8350801 7.0473774 -4.9154026 -51.4231727 20.8927784
2.0070274 0.2946376 0.5410076 0.002524 -0.002305 -0.000561 4.3914070 4.5584063 -1.1078545 56.1780056 29.7277912 -9.0695853 13.2688526
2.0128553 0.2568638 0.4596465 0.001502 -0.002049 -0.001190 6.1353997 5.4644264 -3.0732597 57.3077082 26.0003069 -18.4015743 12.7755234
1.9984417 0.2145658 0.3813196 0.000170 -0.001698 -0.001832 6.2972505 4.8239135 -4.8231857 55.7839598 21.6686378 -27.2053811 12.9072968
1.9650009 0.1695444 0.3097915 -0.001386 -0.001060 -0.002196 5.1191562 3.3369470 -5.4756295 51.9731472 16.9441295 -34.9336182 13.2583880
1.9148124 0.1238887 0.2478694 -0.002734 -0.000614 -0.002313 3.2281241 1.7326711 -4.6551268 46.3896479 12.2358312 -41.1034546 14.1125390
1.8507960 0.0795212 0.1970891 -0.003823 -0.000147 -0.002154 1.5228965 0.6197683 -2.9390925 39.8503188 7.6942570 -45.6276283 15.0173285
1.7759351 0.0379100 0.1577777 -0.004306 -0.000056 -0.001758 0.3524531 0.0850823 -0.9220943 32.9820278 3.6283958 -48.6105697 16.2070891
1.6928153 0.0000001 0.1293628 -0.004537 0.000002 -0.001316 -0.1979005 0.0000003 0.7262884 26.3940782 -0.0009283 -50.3143919 17.2103183
1.6033620 -0.0337012 0.1107548 -0.004221 -0.000154 -0.000813 -0.3538028 0.1458211 1.9480441 20.2793497 -3.0702484 -51.0688087 18.3996655
1.5087394 -0.0629661 0.1006557 -0.003851 -0.000320 -0.000403 -0.2712680 0.3539878 2.5771739 14.9256278 -5.6803235 -51.1916738 19.2968890
1.4093244 -0.0876668 0.0977729 -0.003247 -0.000478 -0.000070 -0.1206692 0.5653864 2.9713161 10.2426812 -7.8423753 -50.8857597 20.3092179
2.0674662 0.2230114 0.5364125 0.001558 -0.002135 -0.000767 12.7391313 8.7521005 -2.9869670 64.9221031 22.9743980 -9.9119315 11.4344197
2.0645488 0.1797888 0.4517346 0.000455 -0.001719 -0.001639 13.9060904 7.7314361 -6.5445847 64.8097822 18.5005348 -19.7916405 11.2613653
2.0397301 0.1337647 0.3719118 -0.000862 -0.001201 -0.002277 12.1413979 5.2801782 -8.8296867 61.6662483 13.6821582 -28.8871280 11.6084549
1.9951313 0.0871450 0.3008425 -0.002251 -0.000662 -0.002659 8.5322854 2.6608162 -8.7590349 56.0275319 8.8185640 -36.4844136 12.4574551
1.9339775 0.0420215 0.2410200 -0.003361 -0.000165 -0.002615 4.7586364 0.8247809 -6.6623192 48.7609554 4.1515929 -42.2888285 13.5847852
1.8598350 0.0000001 0.1934162 -0.004062 0.000000 -0.002284 1.9596563 -0.0000012 -3.7205698 40.8519974 0.0002151 -46.2490422 14.8785850
1.7759350 -0.0379098 0.1577778 -0.004302 0.000057 -0.001757 0.3524152 -0.0850738 -0.9219952 32.9802440 -3.6280898 -48.6107746 16.2058183
1.6847840 -0.0712043 0.1330801 -0.004205 -0.000178 -0.001169 -0.2998725 0.1858578 1.1258864 25.7280474 -6.6061520 -49.7604187 17.4845837