# volRat = 0.650000
# viscRat = 5.000000
# alpha = 1.000000
# shRate = 2.250000
# tnum = 9900
# time = 10.566334
VARIABLES = X, Y, Z, U, V, W, F_B0, F_B1, F_B2, F_0, F_1, F_2, T
ZONE N=2562 E=5120 F=FEPOINT ET=TRIANGLE
1.6541012 0.4683589 0.6212285 0.002959 -0.000553 0.000006 3.0146067 14.3900411 0.0000213 23.3219342 51.1572984 -0.0020356 20.0625336
-1.6541012 0.4683590 0.6212286 -0.002959 -0.000553 0.000006 -3.0145966 14.3900411 0.0000218 -23.3219256 51.1572976 -0.0020350 20.0625338
1.6541012 -0.4683573 0.6212286 0.002965 0.000552 0.000003 3.0145500 -14.3898198 0.0000221 23.3195017 -51.1568831 -0.0006515 20.0599822
-1.6541012 -0.4683573 0.6212286 -0.002965 0.000552 0.000003 -3.0145601 -14.3898200 0.0000215 -23.3195102 -51.1568838 -0.0006521 20.0599823
0.9826705 0.0000002 1.1302198 -0.001727 -0.000011 -0.000329 -1.9653920 -0.0000537 17.5918715 -2.5001079 0.0065059 59.6659387 22.6317403
0.9826697 0.0000002 0.1122357 -0.001729 -0.000008 -0.000039 -1.8839840 -0.0000381 -16.8632005 -2.4438868 0.0018638 -58.9501501 22.6301841
-0.9826705 0.0000002 1.1302198 0.001727 -0.000011 -0.000329 1.9654021 0.0000030 17.5919619 2.5001179 0.0065383 59.6660271 22.6317403
-0.9826697 0.0000002 0.1122357 0.001729 -0.000008 -0.000039 1.8840043 -0.0000261 -16.8633821 2.4439069 0.0018710 -58.9503275 22.6301841
-0.0000000 0.3395789 0.8379067 -0.000000 -0.004159 -0.001771 0.0000181 -64.7203218 -37.3029317 0.0000174 -12.1275256 -3.0499336 25.6216911
-0.0000000 -0.3395788 0.8379068 0.000000 0.001781 -0.000352 0.0000026 76.3961537 -44.0368556 0.0000025 23.6461019 -9.6115515 25.6056033
-0.0000000 0.3395845 0.4045490 0.000000 0.003789 -0.002585 0.0000004 -81.3345507 46.8758672 0.0000005 -28.4241872 12.1517600 25.7061053
-0.0000000 -0.3395829 0.4045497 0.000000 -0.003289 -0.002444 0.0000031 86.9184419 50.1008671 0.0000030 33.9616879 15.3942128 25.6547674
1.6770227 0.4616233 0.6755855 0.004204 -0.000892 -0.000151 -2.9741472 -12.8510725 -1.2320659 22.6924883 39.1815857 4.7287028 19.8743655
1.6938078 0.4483500 0.7347721 0.004038 -0.000922 -0.000189 -2.3216107 -9.0855351 -1.9918303 24.5557309 40.0410401 10.9374551 19.4424427
1.7016240 0.4286763 0.7963991 0.003640 -0.000834 -0.000271 -2.2044435 -7.9800037 -2.8497474 25.2095427 38.4923907 17.0831052 19.2635189
1.6986108 0.4029508 0.8577844 0.002574 -0.000563 -0.000214 -1.9600009 -6.7136528 -3.4570431 25.3112944 36.4072938 23.2629621 18.9634295
1.6838558 0.3718547 0.9166196 0.001593 -0.000269 -0.000180 -1.6827039 -5.5941701 -3.9039534 24.4548355 33.6137539 29.1081856 18.9763880
1.6572132 0.3364641 0.9707943 0.000322 0.000116 -0.000134 -1.3370168 -4.4427540 -4.0574649 22.9058362 30.3852114 34.4371067 18.9240960
1.6192025 0.2981193 1.0186112 -0.000747 0.000420 -0.000089 -1.0045206 -3.4594445 -4.0538255 20.6442328 26.8661983 39.0239467 19.1681387
1.5708522 0.2582547 1.0589233 -0.001755 0.000675 -0.000067 -0.6995377 -2.6229917 -3.9073060 17.9500797 23.1858445 42.7847198 19.3549189
1.5135036 0.2182254 1.0911810 -0.002338 0.000782 -0.000070 -0.4467812 -1.9707062 -3.7294780 14.9305543 19.5441422 45.7045745 19.8142339
1.4486220 0.1791845 1.1153799 -0.002760 0.000805 -0.000088 -0.2366955 -1.4307348 -3.4676344 11.9095315 16.0166883 47.8897512 20.1271499
1.3776573 0.1420206 1.1319410 -0.002751 0.000718 -0.000112 -0.0773924 -1.0454164 -3.3060423 8.9119334 12.6876263 49.3715917 20.6930136
1.3019756 0.1073570 1.1415810 -0.002636 0.000559 -0.000122 0.0470997 -0.7202668 -3.0749224 6.1727249 9.6175125 50.3774089 21.0557175
1.2228911 0.0755927 1.1451932 -0.002301 0.000394 -0.000140 0.1457395 -0.4931043 -3.0208722 3.6767396 6.7867087 50.9104418 21.6120917
1.1417749 0.0469565 1.1437831 -0.002010 0.000233 -0.000153 0.2217682 -0.2961433 -2.9322454 1.5759613 4.2185353 51.1451426 21.9316589
1.0608061 0.0217153 1.1384714 -0.001638 0.000023 -0.000062 0.5482773 -0.2478006 -5.5862080 -0.2447189 1.8728457 50.3641467 22.4615619
1.7662067 -0.4359129 0.6841445 0.004016 0.001231 -0.000311 -2.6972636 8.0268058 -1.0015579 29.9194770 -39.6526542 6.2868115 18.4854107
1.7835808 -0.4170792 0.7496406 0.003773 0.001315 -0.000030 -2.6729986 7.1533571 -1.9279628 31.5618651 -38.3504329 12.8491042 18.1064448
1.7884658 -0.3919700 0.8160528 0.002996 0.001170 0.000107 -2.3765516 5.8563891 -2.5604493 32.2864662 -36.2985558 19.7652945 17.7815322
1.7802290 -0.3609389 0.8809443 0.001925 0.000888 0.000247 -1.9955701 4.6235321 -2.9328185 31.8537576 -33.4918651 26.4330547 17.6502935
1.7586049 -0.3249891 0.9418281 0.000554 0.000485 0.000396 -1.5972770 3.5532038 -3.0923197 30.3843445 -30.0981230 32.5976894 17.6409322
1.7240613 -0.2855434 0.9965129 -0.000758 0.000071 0.000463 -1.2405132 2.7105466 -3.1424185 27.9132471 -26.3264880 37.9386744 17.8447623
1.6777195 -0.2442147 1.0433981 -0.001907 -0.000299 0.000458 -0.9364358 2.0637768 -3.1450292 24.7488239 -22.3673518 42.3548085 18.1717774
1.6211315 -0.2025701 1.0816046 -0.002729 -0.000525 0.000405 -0.6779880 1.5594948 -3.1217953 21.1258114 -18.4289808 45.7418047 18.6269352
1.5560207 -0.1619516 1.1109422 -0.003238 -0.000658 0.000299 -0.4618773 1.1671606 -3.1063085 17.3527919 -14.6155822 48.2141922 19.1607344
1.4840668 -0.1233863 1.1317722 -0.003327 -0.000583 0.000196 -0.2723645 0.8327963 -3.0318120 13.6183608 -11.0970085 49.8540010 19.7470205
1.4067704 -0.0875757 1.1448254 -0.003234 -0.000496 0.000085 -0.1164818 0.5653693 -2.9750022 10.1445429 -7.8265131 50.8642645 20.3226671
1.3253839 -0.0549429 1.1510434 -0.002880 -0.000309 -0.000003 0.0121402 0.3326557 -2.8275011 6.9710023 -4.9154775 51.4107558 20.9064722
1.2408498 -0.0256989 1.1514444 -0.002480 -0.000165 -0.000070 0.1092200 0.1455442 -2.6541774 4.1855321 -2.2923020 51.6695613 21.4634240
1.1534929 0.0000002 1.1470250 -0.002025 0.000005 -0.000067 0.1637824 0.0000028 -2.2730223 1.7701124 -0.0039386 51.8470522 21.9492093
1.8515474 -0.4011282 0.6904730 0.003933 0.001793 0.000153 -2.5907072 5.4544221 -0.8264626 37.7040323 -37.8600518 7.1411821 16.9628722
1.8677554 -0.3760702 0.7620530 0.003214 0.001698 0.000286 -2.0521134 3.8559497 -1.2748827 39.6019351 -35.7440964 14.7896700 16.3636345
1.8683901 -0.3449377 0.8333521 0.002315 0.001593 0.000659 -1.4816010 2.5377886 -1.3813867 39.9575911 -32.9628250 22.3642327 16.1862213
1.8535249 -0.3084152 0.9015446 0.000818 0.001123 0.000915 -0.9938208 1.5783444 -1.2710045 38.8987353 -29.4148191 29.5737669 16.0444513
1.8236735 -0.2678926 0.9639307 -0.000530 0.000705 0.001061 -0.7353021 1.0991078 -1.2455566 36.3455964 -25.4312680 35.9193101 16.3234270
1.7800793 -0.2251232 1.0183626 -0.001971 0.000176 0.001101 -0.6008100 0.8568957 -1.3378489 32.7887458 -21.1786988 41.2079208 16.6181384
1.7245537 -0.1818865 1.0635169 -0.002943 -0.000140 0.001015 -0.5711597 0.7870497 -1.6914687 28.4299792 -16.9328120 45.2499373 17.2754294
1.6591559 -0.1397308 1.0989342 -0.003685 -0.000363 0.000861 -0.5002779 0.6736923 -2.0324678 23.8211344 -12.8601501 48.1669644 17.8507107
1.5858818 -0.0998324 1.1248683 -0.003870 -0.000366 0.000637 -0.4079710 0.5424392 -2.4116541 19.1662182 -9.1015267 50.0507629 18.6647893
1.5064432 -0.0629779 1.1420601 -0.003870 -0.000330 0.000413 -0.2681822 0.3553745 -2.5879421 14.8225655 -5.6749971 51.1649522 19.3062525
1.4221271 -0.0296227 1.1515083 -0.003452 -0.000123 0.000207 -0.1294980 0.1726927 -2.7223298 10.7966398 -2.6760423 51.6709698 20.1373020
1.3336530 0.0000003 1.1542957 -0.003117 -0.000004 0.000046 0.0009342 0.0000030 -2.6498646 7.3120289 0.0024858 51.8024744 20.6906195
1.2408498 0.0256994 1.1514444 -0.002480 0.000161 -0.000066 0.1094026 -0.1457810 -2.6586142 4.1869275 2.2930948 51.6654390 21.4658861
1.9322050 -0.3551011 0.6962342 0.003315 0.002142 0.000287 -0.6643641 0.9960201 -0.1865099 46.5418233 -34.6127900 8.1180409 15.1729671
1.9446847 -0.3235340 0.7732134 0.002458 0.002068 0.000827 0.5018400 -0.6624394 0.2766361 48.2991833 -31.7854917 16.5929394 14.7077949
1.9390268 -0.2863423 0.8486837 0.001202 0.001724 0.001219 1.2722446 -1.5012923 1.0614604 48.0361586 -28.1335459 24.9387277 14.4969686
1.9157843 -0.2447709 0.9192712 -0.000299 0.001281 0.001605 1.4003408 -1.4908294 1.6156739 45.7893548 -23.9561233 32.4674895 14.6529789
1.8763046 -0.2006430 0.9821097 -0.001818 0.000702 0.001749 1.0190581 -0.9816141 1.5697162 41.9386307 -19.4331347 38.8797971 15.0823739
1.8226887 -0.1559322 1.0352513 -0.003064 0.000246 0.001712 0.4269986 -0.3697881 0.8713609 36.8890451 -14.9032452 43.8340187 15.7688324
1.7574217 -0.1123979 1.0778143 -0.003932 -0.000100 0.001498 -0.0528181 0.0401611 -0.1444693 31.3131972 -10.5672822 47.4209866 16.5776004
1.6829461 -0.0713777 1.1098549 -0.004276 -0.000188 0.001175 -0.3057449 0.1912475 -1.1567956 25.6062415 -6.6142760 49.7280308 17.4932354
1.6013380 -0.0337477 1.1320838 -0.004266 -0.000162 0.000821 -0.3539115 0.1474242 -1.9681005 20.1677261 -3.0704907 51.0386941 18.4056172
1.5141176 0.0000004 1.1455722 -0.003964 0.000002 0.000488 -0.2652694 0.0000024 -2.4473871 15.2149724 -0.0018501 51.6060949 19.2857284
1.4221271 0.0296234 1.1515083 -0.003451 0.000122 0.000208 -0.1295102 -0.1727030 -2.7225849 10.7953746 2.6754195 51.6704800 20.1342009
1.3253839 0.0549435 1.1510436 -0.002881 0.000313 -0.000004 0.0121401 -0.3326456 -2.8274716 6.9713749 4.9102254 51.4116121 20.9065567
2.0051972 -0.2963993 0.7015778 0.002474 0.002331 0.000560 4.2109298 -4.4153428 1.0683463 55.8762272 -29.7911575 9.0517585 13.2957335
2.0113564 -0.2584231 0.7830966 0.001436 0.002073 0.001189 5.9709350 -5.3680336 3.0060087 57.0455398 -26.0620039 18.3727774 12.7964146
1.9971586 -0.2158433 0.8615809 0.000081 0.001709 0.001836 6.1695919 -4.7679075 4.7475761 55.5637305 -21.7211450 27.1707275 12.9173806
1.9638088 -0.1704983 0.9332329 -0.001497 0.001052 0.002203 5.0299575 -3.3063354 5.4047245 51.7893047 -16.9830517 34.8983845 13.2637172
1.9135956 -0.1245201 0.9952229 -0.002841 0.000605 0.002318 3.1694871 -1.7149809 4.5918958 46.2272237 -12.2617299 41.0691062 14.1180821
1.8494603 -0.0798697 1.0460078 -0.003926 0.000140 0.002160 1.4906851 -0.6115092 2.8915258 39.7116818 -7.7106260 45.5999614 15.0215006
1.7744108 -0.0380428 1.0852680 -0.004406 0.000039 0.001766 0.3350999 -0.0815555 0.8818546 32.8569715 -3.6287065 48.5800383 16.2115899
1.6910550 0.0000005 1.1135911 -0.004602 -0.000002 0.001320 -0.2051908 0.0000006 -0.7585676 26.2713890 0.0008530 50.2834543 17.2234755
1.6013380 0.0337486 1.1320839 -0.004270 0.000160 0.000821 -0.3538886 -0.1474110 -1.9679730 20.1698389 3.0710101 51.0388008 18.4075423
1.5064431 0.0629786 1.1420602 -0.003868 0.000324 0.000413 -0.2681841 -0.3553719 -2.5879606 14.8218375 5.6783691 51.1644197 19.3070364
1.4067703 0.0875764 1.1448256 -0.003236 0.000491 0.000085 -0.1164745 -0.5653279 -2.9748185 10.1459738 7.8281568 50.8643609 20.3253455
2.0664424 -0.2244940 0.7062221 0.001489 0.002174 0.000771 12.5547864 -8.7011029 2.9560815 64.6837799 -23.0356038 9.8981028 11.4404368
2.0637464 -0.1809846 0.7910958 0.000362 0.001744 0.001652 13.7643161 -7.7160863 6.5027154 64.6085611 -18.5501590 19.7688414 11.2584996
2.0389989 -0.1346231 0.8710908 -0.000975 0.001216 0.002296 12.0399869 -5.2776388 8.7883587 61.4936136 -13.7203665 28.8600068 11.6042186
1.9943317 -0.0876642 0.9422738 -0.002379 0.000665 0.002681 8.4588097 -2.6582350 8.7165425 55.8750529 -8.8423290 36.4557966 12.4510484
1.9329999 -0.0422439 1.0021359 -0.003490 0.000165 0.002636 4.7074514 -0.8221312 6.6179108 48.6230952 -4.1633964 42.2616379 13.5816832
1.8586054 0.0000006 1.0497102 -0.004193 0.000001 0.002305 1.9133276 -0.0000024 3.6500059 40.6977763 -0.0008038 46.1983959 14.8825663
1.7744108 0.0380438 1.0852681 -0.004403 -0.000040 0.001766 0.3350681 0.0815465 0.8817710 32.8556448 3.6285309 48.5799940 16.2098026
1.6829461 0.0713786 1.1098551 -0.004276 0.000189 0.001174 -0.3057444 -0.1912453 -1.1567939 25.6061498 6.6122166 49.7284608 17.4930780
1.5858818 0.0998333 1.1248685 -0.003866 0.000366 0.000637 -0.4079867 -0.5424559 -2.4117481 19.1645283 9.1000634 50.0509130 18.6625118
1.4840668 0.1233871 1.1317725 -0.003330 0.000586 0.000195 -0.2723556 -0.8327633 -3.0317150 13.6195177 11.0935193 49.8552021 19.7458277
2.1111848 -0.1405310 0.7097253 0.000555 0.001561 0.000984 22.5692462 -8.9193563 5.0591882 71.6147666 -14.5427334 10.4971705 9.8932206
2.0975244 -0.0933992 0.7963826 -0.000432 0.001013 0.001901 21.3634827 -5.7564025 9.7198527 69.8266261 -9.6429777 20.6978434 10.0113943
2.0610107 -0.0457971 0.8761823 -0.001603 0.000454 0.002577 16.2092038 -2.3037744 11.5269124 64.7562144 -4.6972595 29.7341919 10.8814601
2.0048267 0.0000006 0.9454160 -0.002699 -0.000001 0.002824 9.9468141 -0.0000056 10.1092683 57.3335134 0.0002170 37.0260960 12.0259399
1.9329999 0.0422451 1.0021359 -0.003494 -0.000167 0.002638 4.7074917 0.8221303 6.6179682 48.6246660 4.1637371 42.2610623 13.5828665
1.8494603 0.0798709 1.0460079 -0.003925 -0.000143 0.002160 1.4906922 0.6115083 2.8915403 39.7112718 7.7118921 45.5999278 15.0219105
1.7574217 0.1123990 1.0778145 -0.003935 0.000097 0.001499 -0.0527876 -0.0401377 -0.1443858 31.3146643 10.5679453 47.4207800 16.5792372
1.6591559 0.1397317 1.0989345 -0.003685 0.000359 0.000862 -0.5002758 -0.6736862 -2.0324605 23.8211760 12.8621349 48.1662001 17.8513109
1.5560206 0.1619525 1.1109425 -0.003240 0.000653 0.000300 -0.4618703 -1.1671376 -3.1062638 17.3536708 14.6176733 48.2135674 19.1633342
2.1349515 -0.0479030 0.7116266 -0.000008 0.000562 0.001085 29.7126612 -3.8166320 6.5000697 75.3827105 -4.9545388 10.8030291 9.0062945
2.1092292 0.0000007 0.7982397 -0.000759 -0.000000 0.002045 24.4959149 -0.0000063 11.0068978 71.6440655 -0.0003083 20.9825198 9.6507730
2.0610107 0.0457984 0.8761823 -0.001601 -0.000455 0.002575 16.2091711 2.3037575 11.5268904 64.7554012 4.6972862 29.7346163 10.8807567
1.9943317 0.0876655 0.9422739 -0.002378 -0.000666 0.002681 8.4588073 2.6582246 8.7165420 55.8749344 8.8415463 36.4560993 12.4507874
1.9135956 0.1245213 0.9952230 -0.002837 -0.000605 0.002316 3.1694537 1.7149574 4.5918490 46.2259276 12.2610366 41.0696515 14.1167760
1.8226887 0.1559334 1.0352515 -0.003066 -0.000246 0.001712 0.4269968 0.3697853 0.8713575 36.8897469 14.9018585 43.8342777 15.7681850
1.7245536 0.1818876 1.0635172 -0.002938 0.000140 0.001014 -0.5711792 -0.7870741 -1.6915274 28.4280864 16.9317147 45.2505785 17.2737787
1.6211315 0.2025711 1.0816050 -0.002732 0.000527 0.000403 -0.6779823 -1.5594769 -3.1217715 21.1265857 18.4265996 45.7430674 18.6257666
2.1349515 0.0479045 0.7116266 -0.000010 -0.000564 0.001088 29.7126960 3.8166250 6.5000780 75.3831966 4.9546828 10.8021414 9.0069864
2.0975244 0.0934006 0.7963827 -0.000432 -0.001014 0.001900 21.3634967 5.7563952 9.7198611 69.8265577 9.6433191 20.6980128 10.0114649
2.0389989 0.1346245 0.8710909 -0.000977 -0.001218 0.002299 12.0400290 5.2776480 8.7883922 61.4944607 13.7206675 28.8593299 11.6049759
1.9638088 0.1704996 0.9332331 -0.001497 -0.001054 0.002204 5.0299750 3.3063410 5.4047456 51.7895226 16.9837532 34.8979544 13.2643366
1.8763046 0.2006442 0.9821100 -0.001820 -0.000706 0.001751 1.0190907 0.9816437 1.5697674 41.9392110 19.4341886 38.8792490 15.0836740
1.7800793 0.2251244 1.0183629 -0.001971 -0.000178 0.001102 -0.6007980 -0.8568769 -1.3378232 32.7886412 21.1797704 41.2074002 16.6191189
1.6777194 0.2442159 1.0433985 -0.001910 0.000295 0.000461 -0.9364213 -2.0637403 -3.1449830 24.7501533 22.3688717 42.3537186 18.1734193
2.1111848 0.1405325 0.7097253 0.000556 -0.001562 0.000981 22.5692265 8.9193396 5.0591853 71.6142148 14.5427467 10.4978970 9.8926050
2.0637465 0.1809860 0.7910959 0.000361 -0.001744 0.001653 13.7643169 7.7160795 6.5027185 64.6088355 18.5495613 19.7687206 11.2583529
1.9971587 0.2158448 0.8615810 0.000085 -0.001710 0.001833 6.1695626 4.7678800 4.7475562 55.5624916 21.7208005 27.1718248 12.9163244
1.9157843 0.2447723 0.9192714 -0.000300 -0.001280 0.001605 1.4003326 1.4908190 1.6156654 45.7898541 23.9550488 32.4679042 14.6522455
1.8236735 0.2678939 0.9639310 -0.000527 -0.000704 0.001059 -0.7353270 -1.0991435 -1.2455997 36.3447383 25.4301558 35.9201626 16.3218352
1.7240613 0.2855447 0.9965132 -0.000758 -0.000071 0.000462 -1.2405154 -2.7105475 -3.1424270 27.9134133 26.3253221 37.9396073 17.8437930
2.0664425 0.2244955 0.7062221 0.001489 -0.002176 0.000773 12.5548205 8.7011214 2.9560910 64.6840012 23.0358836 9.8976234 11.4407593
2.0113565 0.2584246 0.7830968 0.001435 -0.002074 0.001189 5.9709603 5.3680531 3.0060233 57.0457652 26.0623963 18.3724542 12.7970822
1.9390268 0.2863437 0.8486839 0.001200 -0.001727 0.001223 1.2722761 1.5013283 1.0614875 48.0368810 28.1341854 24.9375772 14.4979048
1.8535249 0.3084166 0.9015448 0.000819 -0.001125 0.000915 -0.9937975 -1.5783062 -1.2709758 38.8982964 29.4158912 29.5732747 16.0457731
1.7586048 0.3249904 0.9418285 0.000552 -0.000488 0.000399 -1.5972567 -3.5531555 -3.0922837 30.3850653 30.0990954 32.5966102 17.6422227
2.0051972 0.2964008 0.7015779 0.002476 -0.002332 0.000557 4.2109063 4.4153164 1.0683411 55.8756094 29.7909652 9.0526464 13.2950473
1.9446847 0.3235355 0.7732135 0.002459 -0.002069 0.000826 0.5018274 0.6624226 0.2766294 48.2991966 31.7849606 16.5934636 14.7071264
1.8683901 0.3449392 0.8333524 0.002318 -0.001593 0.000655 -1.4816330 -2.5378421 -1.3814178 39.9568252 32.9619141 22.3656774 16.1847582
1.7802290 0.3609404 0.8809446 0.001924 -0.000888 0.000247 -1.9955816 -4.6235561 -2.9328386 31.8546416 33.4908897 26.4335904 17.6490816
1.9322050 0.3551027 0.6962343 0.003315 -0.002143 0.000291 -0.6643465 -0.9959936 -0.1865052 46.5422269 34.6129930 8.1169169 15.1734090
1.8677554 0.3760718 0.7620531 0.003212 -0.001700 0.000288 -2.0520846 -3.8558943 -1.2748661 39.6023760 35.7447639 14.7887170 16.3650829
1.7884658 0.3919715 0.8160531 0.002996 -0.001173 0.000111 -2.3765306 -5.8563352 -2.5604297 32.2862400 36.2994621 19.7640528 17.7826888
1.8515474 0.4011298 0.6904731 0.003938 -0.001794 0.000147 -2.5907397 -5.4544895 -0.8264738 37.7025366 37.8598903 7.1433920 16.9616444
1.7835807 0.4170808 0.7496408 0.003772 -0.001315 -0.000031 -2.6730145 -7.1533980 -1.9279766 31.5625532 38.3496480 12.8494339 18.1052850
1.7662067 0.4359145 0.6841445 0.004013 -0.001232 -0.000306 -2.6972499 -8.0267636 -1.0015540 29.9205054 39.6527165 6.2854394 18.4857893
1.7353219 0.4493302 0.6212284 0.003844 -0.001036 -0.000006 -2.9057176 -10.0275650 -0.0000106 27.2979117 40.3235439 0.0015719 19.0912684
1.8189503 0.4204558 0.6212282 0.003992 -0.001555 0.000013 -2.7227497 -6.6203900 -0.0000049 34.5366625 39.0936191 -0.0047286 17.5158730
1.9013628 0.3807299 0.6212280 0.003637 -0.001976 -0.000003 -1.8236918 -3.1800268 -0.0000012 42.9584268 36.6031912 0.0009927 15.9618125
1.9785798 0.3286824 0.6212278 0.003037 -0.002312 0.000001 1.6822508 2.0841587 -0.0000001 52.2075162 32.6506018 0.0001147 14.0129564
2.0465689 0.2633108 0.6212277 0.002131 -0.002314 0.000003 8.7927296 7.4684103 -0.0000046 61.6252304 26.8358433 -0.0010566 12.1563480
2.1005787 0.1848503 0.6212275 0.001188 -0.001938 0.000001 19.1269443 10.1689380 -0.0000153 69.8511631 19.1110131 -0.0002032 10.3086370
2.1356579 0.0955480 0.6212275 0.000445 -0.001125 -0.000003 28.9856043 7.4219037 -0.0000274 75.4026428 9.9016596 0.0010861 9.0967852
2.1478616 0.0000007 0.6212274 0.000154 -0.000001 0.000006 33.2264730 -0.0000057 -0.0000329 77.3628649 0.0001798 -0.0017639 8.5390523
2.1356578 -0.0955465 0.6212275 0.000445 0.001125 -0.000002 28.9856004 -7.4219127 -0.0000273 75.4025447 -9.9022761 0.0009330 9.0970842
2.1005787 -0.1848488 0.6212275 0.001189 0.001937 0.000001 19.1269232 -10.1689336 -0.0000152 69.8510667 -19.1107425 -0.0000410 10.3080903
2.0465688 -0.2633092 0.6212277 0.002132 0.002314 0.000003 8.7927315 -7.4684152 -0.0000045 61.6249864 -26.8363866 -0.0007435 12.1566125
1.9785797 -0.3286808 0.6212278 0.003038 0.002310 0.000002 1.6822252 -2.0841277 -0.0000001 52.2074260 -32.6501256 -0.0001641 14.0122761
1.9013628 -0.3807283 0.6212280 0.003638 0.001976 -0.000004 -1.8236825 3.1800113 -0.0000012 42.9578601 -36.6038514 0.0014671 15.9622103
1.8189503 -0.4204542 0.6212282 0.003994 0.001553 0.000010 -2.7227785 6.6204611 -0.0000050 34.5361568 -39.0931092 -0.0036303 17.5142405
1.7353219 -0.4493286 0.6212284 0.003841 0.001035 -0.000004 -2.9057004 10.0275068 -0.0000108 27.2986103 -40.3239101 0.0016127 19.0918876
1.6770226 -0.4616218 0.5668715 0.004205 0.000893 0.000146 -2.9740871 12.8508224 1.2320079 22.6912656 -39.1833035 -4.7251439 19.8789164
1.6938076 -0.4483488 0.5076850 0.004031 0.000917 0.000196 -2.3216518 9.0857103 1.9918436 24.5589122 -40.0386156 -10.9409047 19.4380830
1.7016237 -0.4286752 0.4460578 0.003636 0.000838 0.000261 -2.2043948 7.9798468 2.8496671 25.2106411 -38.4953346 -17.0767400 19.2659042
1.6986105 -0.4029499 0.3846725 0.002585 0.000560 0.000225 -1.9600332 6.7137861 3.4570880 25.3068556 -36.4054411 -23.2680067 18.9634396
1.6838553 -0.3718540 0.3258372 0.001584 0.000271 0.000176 -1.6826715 5.5940869 3.9038711 24.4577284 -33.6161301 -29.1046071 18.9778220
1.6572126 -0.3364635 0.2716624 0.000325 -0.000118 0.000138 -1.3370285 4.4428180 4.0574984 22.9047809 -30.3841883 -34.4385271 18.9200852
1.6192018 -0.2981189 0.2238454 -0.000742 -0.000418 0.000091 -1.0045121 3.4594399 4.0537938 20.6416646 -26.8691241 -39.0224601 19.1753735
1.5708515 -0.2582544 0.1835332 -0.001753 -0.000681 0.000073 -0.6995393 2.6230214 3.9073224 17.9493052 -23.1824534 -42.7870671 19.3494353
1.5135028 -0.2182253 0.1512753 -0.002342 -0.000776 0.000068 -0.4467581 1.9706269 3.7292972 14.9330557 -19.5498442 -45.7015972 19.8159225
1.4486212 -0.1791843 0.1270763 -0.002746 -0.000816 0.000095 -0.2367465 1.4310655 3.4684021 11.9028847 -16.0109674 -47.8917667 20.1282242
1.3776564 -0.1420205 0.1105151 -0.002754 -0.000713 0.000113 -0.0773721 1.0451709 3.3052263 8.9139580 -12.6939515 -49.3700084 20.6942499
1.3019747 -0.1073569 0.1008751 -0.002634 -0.000564 0.000135 0.0469789 0.7184178 3.0669839 6.1718730 -9.6143480 -50.3864357 21.0470187
1.2228903 -0.0755926 0.0972628 -0.002289 -0.000400 0.000117 0.1470213 0.4974471 3.0474190 3.6730600 -6.7877527 -50.8828407 21.6235056
1.1417740 -0.0469563 0.0986727 -0.002001 -0.000243 0.000105 0.2275633 0.3038946 3.0088571 1.5747881 -4.2088937 -51.0693104 21.9205785
1.0608053 -0.0217150 0.1039844 -0.001636 -0.000013 0.000229 0.5309545 0.2399909 5.4096933 -0.2559484 -1.8962042 -50.5356909 22.4594128
1.7662066 0.4359147 0.5583121 0.004020 -0.001232 0.000305 -2.6973177 -8.0269712 1.0015648 29.9191569 39.6519359 -6.2834816 18.4825874
1.7835805 0.4170811 0.4928157 0.003779 -0.001316 0.000039 -2.6729874 -7.1533360 1.9279470 31.5592386 38.3502517 -12.8524922 18.1083420
1.7884654 0.3919719 0.4264032 0.002991 -0.001170 -0.000112 -2.3765872 -5.8564873 2.5604853 32.2890310 36.2976472 -19.7625483 17.7782863
1.7802285 0.3609409 0.3615116 0.001919 -0.000888 -0.000249 -1.9955653 -4.6235318 2.9328135 31.8563783 33.4913274 -26.4319492 17.6495292
1.7586042 0.3249910 0.3006276 0.000559 -0.000485 -0.000392 -1.5973033 -3.5532722 3.0923760 30.3823632 30.0972038 -32.5986204 17.6422408
1.7240606 0.2855453 0.2459427 -0.000769 -0.000071 -0.000464 -1.2405076 -2.7105427 3.1424122 27.9175624 26.3254546 -37.9377062 17.8431352
1.6777187 0.2442165 0.1990574 -0.001914 0.000296 -0.000460 -0.9364470 -2.0638080 3.1450765 24.7519444 22.3669372 -42.3538469 18.1690553
1.6211306 0.2025717 0.1608508 -0.002731 0.000525 -0.000402 -0.6779727 -1.5594646 3.1217368 21.1258036 18.4280099 -45.7425770 18.6321913
1.5560197 0.1619531 0.1315132 -0.003245 0.000657 -0.000298 -0.4618947 -1.1672080 3.1064403 17.3558017 14.6142419 -48.2139960 19.1575233
1.4840658 0.1233875 0.1106833 -0.003344 0.000583 -0.000194 -0.2723258 -0.8326804 3.0314013 13.6254332 11.0959997 -49.8546510 19.7468192
1.4067694 0.0875768 0.0976301 -0.003227 0.000495 -0.000080 -0.1164548 -0.5652404 2.9743463 10.1410083 7.8239693 -50.8658230 20.3286753
1.3253830 0.0549437 0.0914121 -0.002898 0.000307 0.000002 0.0121648 -0.3332973 2.8329986 6.9794278 4.9134081 -51.4060142 20.9071736
1.2408489 0.0256995 0.0910113 -0.002489 0.000173 0.000067 0.1094601 -0.1458587 2.6599958 4.1904095 2.2834911 -51.6649622 21.4606772
1.1534921 0.0000002 0.0954308 -0.002017 -0.000002 0.000185 0.1554410 0.0000026 2.1572696 1.7630800 0.0015819 -51.9615719 21.9650265
1.8515473 0.4011300 0.5519832 0.003932 -0.001796 -0.000158 -2.5906794 -5.4543665 0.8264485 37.7044901 37.8610176 -7.1374929 16.9632257
1.8677551 0.3760721 0.4804029 0.003213 -0.001699 -0.000283 -2.0521107 -3.8559489 1.2748798 39.6027533 35.7439275 -14.7906550 16.3639046
1.8683897 0.3449396 0.4091036 0.002324 -0.001597 -0.000651 -1.4815947 -2.5377819 1.3813820 39.9539424 32.9642247 -22.3663058 16.1887260
1.8535243 0.3084171 0.3409110 0.000817 -0.001123 -0.000912 -0.9938235 -1.5783519 1.2710101 38.8990141 29.4149293 -29.5739456 16.0436139
1.8236728 0.2678944 0.2785247 -0.000528 -0.000709 -0.001060 -0.7353040 -1.0991131 1.2455627 36.3451412 25.4327022 -35.9186316 16.3229557
1.7800786 0.2251249 0.2240928 -0.001958 -0.000176 -0.001092 -0.6008167 -0.8569073 1.3378677 32.7836439 21.1789669 -41.2101678 16.6211793
1.7245528 0.1818881 0.1789385 -0.002941 0.000137 -0.001014 -0.5711633 -0.7870563 1.6914848 28.4294296 16.9340168 -45.2493210 17.2736572
1.6591550 0.1397321 0.1435211 -0.003682 0.000361 -0.000858 -0.5002908 -0.6737105 2.0325280 23.8198809 12.8608731 -48.1668943 17.8480337
1.5858809 0.0998336 0.1175871 -0.003856 0.000362 -0.000633 -0.4079740 -0.5424430 2.4116830 19.1605065 9.1035082 -50.0509159 18.6689715
1.5064422 0.0629789 0.1003954 -0.003865 0.000327 -0.000410 -0.2681991 -0.3553951 2.5881201 14.8204658 5.6763344 -51.1643275 19.3012639
1.4221261 0.0296235 0.0909473 -0.003454 0.000119 -0.000206 -0.1295188 -0.1727169 2.7227923 10.7973440 2.6790804 -51.6700234 20.1333511
1.3336521 0.0000003 0.0881599 -0.003095 -0.000004 -0.000042 0.0009337 0.0000030 2.6461601 7.3013133 0.0018845 -51.8056134 20.6929432
1.2408489 -0.0256990 0.0910113 -0.002490 -0.000174 0.000078 0.1090460 0.1453136 2.6499380 4.1898942 -2.2852970 -51.6746492 21.4593869
1.9322049 0.3551028 0.5462216 0.003320 -0.002143 -0.000279 -0.6644144 -0.9960960 0.1865239 46.5406253 34.6122111 -8.1205407 15.1722717
1.9446844 0.3235358 0.4692422 0.002454 -0.002069 -0.000833 0.5018347 0.6624331 -0.2766336 48.3007171 31.7852256 -16.5903508 14.7070938
1.9390264 0.2863440 0.3937718 0.001198 -0.001724 -0.001222 1.2721941 1.5012347 -1.0614206 48.0378259 28.1324487 -24.9372673 14.4953304
1.9157837 0.2447726 0.3231842 -0.000297 -0.001281 -0.001601 1.4003293 1.4908197 -1.6156648 45.7885724 23.9556807 -32.4685807 14.6551524
1.8763039 0.2006446 0.2603455 -0.001825 -0.000703 -0.001752 1.0190266 0.9815855 -1.5696723 41.9410826 19.4320945 -38.8783982 15.0803026
1.8226879 0.1559337 0.2072040 -0.003074 -0.000247 -0.001714 0.4270032 0.3697925 -0.8713729 36.8927675 14.9024878 -43.8328989 15.7682599
1.7574209 0.1123993 0.1646410 -0.003929 0.000099 -0.001495 -0.0528219 -0.0401639 0.1444800 31.3117879 10.5660653 -47.4218368 16.5808804
1.6829452 0.0713788 0.1326004 -0.004288 0.000189 -0.001175 -0.3057229 -0.1912330 1.1567168 25.6108745 6.6127030 -49.7275458 17.4925980
1.6013370 0.0337487 0.1103716 -0.004274 0.000163 -0.000819 -0.3539014 -0.1474175 1.9680527 20.1710579 3.0682501 -51.0385314 18.4043704
1.5141166 0.0000004 0.0968834 -0.003964 -0.000000 -0.000484 -0.2652487 0.0000024 2.4472089 15.2148395 -0.0004425 -51.6067426 19.2934879
1.4221262 -0.0296228 0.0909474 -0.003457 -0.000120 -0.000206 -0.1295075 0.1727077 2.7225548 10.7989837 -2.6799348 -51.6701539 20.1332434
1.3253830 -0.0549432 0.0914123 -0.002895 -0.000305 0.000001 0.0121645 0.3332947 2.8329189 6.9781025 -4.9165881 -51.4057129 20.9081554
2.0051971 0.2964009 0.5408776 0.002474 -0.002333 -0.000561 4.2109469 4.4153621 -1.0683544 55.8762219 29.7918938 -9.0506725 13.2961274
2.0113562 0.2584248 0.4593586 0.001441 -0.002074 -0.001176 5.9709156 5.3680205 -3.0060086 57.0436257 26.0622126 -18.3768374 12.7977875
1.9971582 0.2158450 0.3808743 0.000081 -0.001712 -0.001836 6.1695703 4.7678960 -4.7475743 55.5635283 21.7225370 -27.1697398 12.9168470
1.9638082 0.1704999 0.3092222 -0.001496 -0.001052 -0.002199 5.0299173 3.3063124 -5.4046980 51.7888604 16.9830544 -34.8989133 13.2630290
1.9135949 0.1245216 0.2472323 -0.002831 -0.000609 -0.002310 3.1694529 1.7149630 -4.5918605 46.2234742 12.2633166 -41.0709320 14.1203315
1.8494595 0.0798710 0.1964474 -0.003923 -0.000141 -0.002157 1.4906496 0.6114934 -2.8914660 39.7105628 7.7111109 -45.6001299 15.0193607
1.7744099 0.0380439 0.1571873 -0.004406 -0.000043 -0.001765 0.3350753 0.0815486 -0.8817926 32.8567790 3.6306669 -48.5796376 16.2095001
1.6910541 0.0000005 0.1288643 -0.004587 -0.000002 -0.001314 -0.2052197 0.0000006 0.7586770 26.2653378 0.0008231 -50.2845957 17.2256577
1.6013371 -0.0337479 0.1103717 -0.004272 -0.000164 -0.000819 -0.3539039 0.1474221 1.9680660 20.1701013 -3.0683905 -51.0386416 18.4037055
1.5064423 -0.0629782 0.1003955 -0.003864 -0.000329 -0.000410 -0.2681999 0.3554013 2.5881271 14.8201538 -5.6754135 -51.1644648 19.3015916
1.4067695 -0.0875761 0.0976303 -0.003226 -0.000502 -0.000079 -0.1164615 0.5652794 2.9745166 10.1404738 -7.8217983 -50.8661379 20.3280608
2.0664423 0.2244956 0.5362331 0.001489 -0.002175 -0.000775 12.5547447 8.7010749 -2.9560910 64.6841874 23.0350208 -9.8960276 11.4394292
2.0637461 0.1809862 0.4513593 0.000358 -0.001743 -0.001657 13.7642811 7.7160700 -6.5027272 64.6099539 18.5494346 -19.7668208 11.2582480
2.0389984 0.1346246 0.3713642 -0.000973 -0.001216 -0.002291 12.0399238 5.2776128 -8.7883444 61.4927334 13.7194760 -28.8614196 11.6052187
1.9943311 0.0876656 0.3001813 -0.002386 -0.000666 -0.002685 8.4587786 2.6582230 -8.7165389 55.8774137 8.8417472 -36.4539249 12.4503762
1.9329992 0.0422451 0.2403193 -0.003496 -0.000165 -0.002638 4.7074248 0.8221214 -6.6178938 48.6253106 4.1618785 -42.2603745 13.5810054
1.8586046 0.0000006 0.1927451 -0.004193 -0.000000 -0.002302 1.9133343 -0.0000025 -3.6500295 40.6974605 -0.0003508 -46.1989777 14.8862505
1.7744100 -0.0380429 0.1571873 -0.004409 0.000041 -0.001766 0.3350766 -0.0815503 -0.8817959 32.8581634 -3.6309209 -48.5790926 16.2091458
1.6829452 -0.0713779 0.1326006 -0.004287 -0.000187 -0.001175 -0.3057227 0.1912348 1.1567156 25.6103037 -6.6145232 -49.7274289 17.4932855