# volRat = 0.650000
# viscRat = 5.000000
# alpha = 1.000000
# shRate = 2.250000
# tnum = 8000
# time = 8.539667
VARIABLES = X, Y, Z, U, V, W, F_B0, F_B1, F_B2, F_0, F_1, F_2, T
ZONE N=2562 E=5120 F=FEPOINT ET=TRIANGLE
1.6558008 0.4679924 0.6212290 0.002979 -0.000554 -0.000002 3.0720962 14.5547411 0.0000258 23.4686630 51.3189504 0.0003857 20.0393641
-1.6558008 0.4679924 0.6212290 -0.002979 -0.000554 -0.000002 -3.0720861 14.5547420 0.0000264 -23.4686543 51.3189510 0.0003864 20.0393643
1.6558008 -0.4679914 0.6212290 0.002969 0.000555 -0.000001 3.0721650 -14.5551185 0.0000264 23.4721173 -51.3193158 -0.0000999 20.0419856
-1.6558009 -0.4679914 0.6212290 -0.002969 0.000555 -0.000001 -3.0721758 -14.5551209 0.0000259 -23.4721265 -51.3193190 -0.0001001 20.0419857
0.9832111 0.0000001 1.1302687 -0.001766 0.000012 0.000109 -1.8764045 -0.0000314 16.8141539 -2.4172419 -0.0056891 58.9048232 22.6284393
0.9832107 0.0000001 0.1121879 -0.001740 0.000013 0.000615 -2.0178315 0.0000129 -18.0815815 -2.5224436 -0.0038966 -60.1484345 22.6276336
-0.9832111 0.0000001 1.1302687 0.001766 0.000012 0.000109 1.8764022 0.0000228 16.8141333 2.4172398 -0.0056581 58.9048033 22.6284394
-0.9832107 0.0000001 0.1121879 0.001740 0.000013 0.000615 2.0177913 0.0000257 -18.0812208 2.5224040 -0.0038891 -60.1480821 22.6276339
-0.0000000 0.3399342 0.8373693 -0.000000 0.002681 0.002133 0.0000241 -86.7015237 -49.8042102 0.0000229 -33.5786230 -15.2013930 25.6245328
-0.0000000 -0.3399325 0.8373684 -0.000000 -0.001154 0.001158 0.0000026 76.8625680 -44.1465543 0.0000025 23.8828813 -9.6272907 25.6593070
-0.0000000 0.3399335 0.4050903 -0.000000 -0.001101 -0.000066 0.0000004 -81.7029835 46.9338127 0.0000002 -28.7331656 12.4840699 25.5853896
-0.0000000 -0.3399324 0.4050908 -0.000000 0.001472 0.000278 0.0000026 73.2950407 42.0982113 0.0000023 20.4231993 7.6837026 25.6308577
1.6786300 0.4612372 0.6755928 0.004218 -0.000896 -0.000141 -3.0002198 -12.8740775 -1.2355579 22.7825060 39.1426624 4.7267621 19.8595792
1.6952950 0.4479552 0.7347842 0.004036 -0.000918 -0.000185 -2.3319334 -9.0686510 -1.9901914 24.6619161 40.0329503 10.9510207 19.4171592
1.7029724 0.4282874 0.7964115 0.003649 -0.000844 -0.000246 -2.2122256 -7.9625398 -2.8464151 25.3019338 38.4884594 17.0905309 19.2509263
1.6998117 0.4025842 0.8577915 0.002593 -0.000565 -0.000208 -1.9653201 -6.6969789 -3.4518252 25.3896202 36.3963700 23.2847345 18.9464165
1.6849092 0.3715265 0.9166164 0.001590 -0.000276 -0.000160 -1.6865714 -5.5804984 -3.8979232 24.5287705 33.6051902 29.1224969 18.9656289
1.6581272 0.3361882 0.9707780 0.000334 0.000109 -0.000120 -1.3397997 -4.4326397 -4.0514467 22.9607744 30.3743449 34.4545897 18.9100827
1.6199915 0.2979055 1.0185819 -0.000736 0.000410 -0.000074 -1.0067359 -3.4530059 -4.0489433 20.6862859 26.8612914 39.0355047 19.1673783
1.5715356 0.2581069 1.0588840 -0.001753 0.000678 -0.000060 -0.7013921 -2.6196537 -3.9042485 17.9852517 23.1749997 42.7976840 19.3425631
1.5141033 0.2181416 1.0911371 -0.002335 0.000770 -0.000056 -0.4483175 -1.9694362 -3.7281713 14.9566468 19.5473038 45.7081798 19.8136057
1.4491614 0.1791565 1.1153378 -0.002750 0.000811 -0.000083 -0.2379133 -1.4307983 -3.4680365 11.9247784 16.0114028 47.8955105 20.1233757
1.3781594 0.1420357 1.1319074 -0.002755 0.000714 -0.000104 -0.0782898 -1.0457126 -3.3064075 8.9294856 12.6942785 49.3722639 20.6916909
1.3024618 0.1073992 1.1415614 -0.002639 0.000563 -0.000122 0.0463782 -0.7198785 -3.0719400 6.1850350 9.6177879 50.3831088 21.0471114
1.2233794 0.0756449 1.1451915 -0.002296 0.000392 -0.000126 0.1457824 -0.4955195 -3.0335674 3.6844693 6.7963145 50.8971642 21.6194970
1.1422780 0.0470024 1.1438007 -0.002016 0.000250 -0.000127 0.2235797 -0.2994979 -2.9626617 1.5869430 4.2098042 51.1167504 21.9200656
1.0613295 0.0217420 1.1385069 -0.001637 0.000012 -0.000137 0.5394057 -0.2444263 -5.5039106 -0.2440455 1.8937562 50.4436484 22.4604979
1.7675501 -0.4354482 0.6841520 0.004023 0.001234 -0.000299 -2.7046211 8.0060377 -1.0001683 30.0231667 -39.6353025 6.2896232 18.4660894
1.7847926 -0.4166140 0.7496492 0.003783 0.001321 -0.000028 -2.6739570 7.1215910 -1.9217376 31.6602176 -38.3417916 12.8637300 18.0903222
1.7895392 -0.3915238 0.8160555 0.002994 0.001176 0.000124 -2.3741581 5.8250229 -2.5497667 32.3813976 -36.2869838 19.7812520 17.7647606
1.7811651 -0.3605309 0.8809349 0.001927 0.000898 0.000266 -1.9924774 4.5981191 -2.9199891 31.9331098 -33.4795464 26.4498655 17.6379884
1.7594128 -0.3246360 0.9418031 0.000563 0.000495 0.000409 -1.5944174 3.5340929 -3.0788738 30.4467884 -30.0858976 32.6170600 17.6324942
1.7247567 -0.2852575 0.9964724 -0.000757 0.000078 0.000475 -1.2390801 2.6985280 -3.1313440 27.9656242 -26.3135008 37.9553511 17.8364586
1.6783223 -0.2440017 1.0433456 -0.001906 -0.000288 0.000472 -0.9360553 2.0566843 -3.1366107 24.7896492 -22.3588509 42.3676509 18.1657641
1.6216640 -0.2024286 1.0815462 -0.002724 -0.000520 0.000412 -0.6784544 1.5560736 -3.1167579 21.1542759 -18.4214489 45.7529188 18.6268117
1.5565055 -0.1618737 1.1108850 -0.003242 -0.000654 0.000306 -0.4626785 1.1657659 -3.1037489 17.3777963 -14.6108210 48.2218401 19.1570308
1.4845258 -0.1233586 1.1317231 -0.003336 -0.000578 0.000203 -0.2731769 0.8323787 -3.0307003 13.6400207 -11.0958312 49.8592925 19.7447520
1.4072231 -0.0875813 1.1447904 -0.003232 -0.000495 0.000088 -0.1172155 0.5654049 -2.9748216 10.1573455 -7.8256352 50.8685337 20.3263763
1.3258467 -0.0549634 1.1510263 -0.002893 -0.000314 0.000003 0.0115448 0.3331409 -2.8305053 6.9884789 -4.9120117 51.4112742 20.9052725
1.2413336 -0.0257165 1.1514466 -0.002490 -0.000165 -0.000064 0.1088228 0.1457871 -2.6568205 4.1998981 -2.2910202 51.6700939 21.4608905
1.1540013 0.0000001 1.1470455 -0.002023 -0.000005 -0.000131 0.1598106 0.0000018 -2.2231160 1.7767230 0.0036166 51.8972728 21.9576522
1.8526201 -0.4006100 0.6904757 0.003930 0.001794 0.000159 -2.5801704 5.4094239 -0.8207639 37.8104017 -37.8477306 7.1457418 16.9459266
1.8686936 -0.3755649 0.7620495 0.003210 0.001697 0.000292 -2.0365664 3.8121493 -1.2621066 39.7003482 -35.7276121 14.8032993 16.3482807
1.8691979 -0.3444687 0.8333344 0.002325 0.001598 0.000661 -1.4653260 2.5012149 -1.3632584 40.0382542 -32.9470070 22.3830467 16.1744277
1.8542138 -0.3080029 0.9015078 0.000819 0.001126 0.000925 -0.9796804 1.5509846 -1.2505103 38.9694820 -29.3981555 29.5918265 16.0332144
1.8242615 -0.2675522 0.9638746 -0.000509 0.000718 0.001069 -0.7271110 1.0837453 -1.2295313 36.3994669 -25.4138241 35.9339954 16.3158440
1.7805883 -0.2248623 1.0182915 -0.001955 0.000178 0.001105 -0.5950063 0.8463919 -1.3227631 32.8279565 -21.1660416 41.2253818 16.6140424
1.7250067 -0.1817047 1.0634379 -0.002931 -0.000135 0.001022 -0.5688418 0.7819537 -1.6819151 28.4603368 -16.9238729 45.2619508 17.2699711
1.6595754 -0.1396196 1.0988559 -0.003677 -0.000355 0.000870 -0.4996838 0.6713377 -2.0266608 23.8444756 -12.8563760 48.1753350 17.8453348
1.5862881 -0.0997776 1.1247985 -0.003853 -0.000360 0.000643 -0.4082588 0.5415428 -2.4086765 19.1799851 -9.1002865 50.0576394 18.6644190
1.5068539 -0.0629611 1.1420050 -0.003865 -0.000326 0.000420 -0.2687690 0.3551504 -2.5867503 14.8370237 -5.6758639 51.1690398 19.2999790
1.4225560 -0.0296240 1.1514718 -0.003453 -0.000114 0.000214 -0.1301487 0.1727092 -2.7223233 10.8098788 -2.6811726 51.6737469 20.1308556
1.3341087 0.0000002 1.1542792 -0.003109 0.000004 0.000051 0.0003680 0.0000019 -2.6480043 7.3184587 -0.0023301 51.8063360 20.6890600
1.2413336 0.0257168 1.1514467 -0.002489 0.000169 -0.000066 0.1087498 -0.1456852 -2.6550397 4.1986648 2.2899358 51.6716412 21.4585948
1.9330053 -0.3545636 0.6962281 0.003312 0.002138 0.000283 -0.6319463 0.9441751 -0.1770600 46.6402281 -34.5937142 8.1279389 15.1579603
1.9453580 -0.3230291 0.7731908 0.002453 0.002067 0.000838 0.5366129 -0.7061273 0.2953041 48.3870528 -31.7664789 16.6031011 14.6965170
1.9395879 -0.2858947 0.8486375 0.001199 0.001724 0.001229 1.3022451 -1.5323037 1.0848826 48.1101737 -28.1135402 24.9527059 14.4884917
1.9162547 -0.2443993 0.9192004 -0.000282 0.001289 0.001606 1.4233926 -1.5114061 1.6400974 45.8472521 -23.9384075 32.4873008 14.6485613
1.8767096 -0.2003572 0.9820191 -0.001816 0.000708 0.001759 1.0325753 -0.9922451 1.5885957 41.9853193 -19.4188374 38.8930705 15.0777476
1.8230534 -0.1557325 1.0351497 -0.003060 0.000254 0.001720 0.4342780 -0.3752572 0.8851719 36.9252724 -14.8933628 43.8460276 15.7667959
1.7577690 -0.1122754 1.0777123 -0.003921 -0.000097 0.001502 -0.0495821 0.0376221 -0.1354541 31.3387536 -10.5593237 47.4323886 16.5790101
1.6832952 -0.0713166 1.1097618 -0.004276 -0.000188 0.001181 -0.3046507 0.1901783 -1.1511035 25.6300335 -6.6088809 49.7364595 17.4921980
1.6017043 -0.0337281 1.1320066 -0.004268 -0.000160 0.000827 -0.3539081 0.1471106 -1.9647860 20.1882892 -3.0683711 51.0454383 18.4042864
1.5145122 0.0000002 1.1455148 -0.003961 -0.000002 0.000493 -0.2657461 0.0000014 -2.4457913 15.2297102 0.0016914 51.6115812 19.2900412
1.4225560 0.0296244 1.1514719 -0.003455 0.000116 0.000214 -0.1301417 -0.1726964 -2.7221776 10.8112730 2.6815565 51.6741026 20.1335975
1.3258467 0.0549637 1.1510263 -0.002892 0.000309 0.000004 0.0115465 -0.3331864 -2.8309271 6.9880258 4.9167119 51.4101037 20.9052612
2.0057357 -0.2958883 0.7015599 0.002471 0.002325 0.000562 4.2627625 -4.4568810 1.0800345 55.9598192 -29.7706004 9.0571722 13.2871582
2.0117866 -0.2579691 0.7830504 0.001440 0.002064 0.001179 6.0172557 -5.3953796 3.0258092 57.1147268 -26.0403398 18.3873923 12.7892149
1.9975064 -0.2154684 0.8615031 0.000090 0.001708 0.001835 6.2040351 -4.7827997 4.7691821 55.6194752 -21.7038768 27.1835039 12.9130339
1.9641040 -0.1702148 0.9331283 -0.001482 0.001056 0.002203 5.0517553 -3.3131204 5.4230404 51.8316183 -16.9693879 34.9108452 13.2606676
1.9138673 -0.1243290 0.9951020 -0.002817 0.000611 0.002313 3.1833997 -1.7188551 4.6078725 46.2588265 -12.2539122 41.0846641 14.1182613
1.8497330 -0.0797613 1.0458837 -0.003911 0.000142 0.002162 1.4974409 -0.6130519 2.9019283 39.7367232 -7.7044780 45.6107901 15.0184647
1.7747032 -0.0379997 1.0851524 -0.004392 0.000047 0.001770 0.3384137 -0.0822035 0.8896574 32.8788238 -3.6293937 48.5889569 16.2085975
1.6913803 0.0000003 1.1134924 -0.004582 0.000001 0.001323 -0.2040019 0.0000003 -0.7532326 26.2863009 -0.0007780 50.2919485 17.2224717
1.6017043 0.0337286 1.1320066 -0.004264 0.000163 0.000827 -0.3539314 -0.1471182 -1.9649155 20.1862080 3.0677134 51.0453903 18.4026097
1.5068539 0.0629615 1.1420051 -0.003867 0.000332 0.000420 -0.2687647 -0.3551417 -2.5867096 14.8376501 5.6726455 51.1695521 19.2992479
1.4072231 0.0875817 1.1447905 -0.003229 0.000499 0.000088 -0.1172118 -0.5653833 -2.9747295 10.1558882 7.8239736 50.8687689 20.3240058
2.0667477 -0.2240653 0.7061909 0.001487 0.002164 0.000775 12.6081230 -8.7164312 2.9658707 64.7493004 -23.0150303 9.9016922 11.4370446
2.0639749 -0.1806374 0.7910259 0.000365 0.001738 0.001654 13.8039402 -7.7203337 6.5161142 64.6622277 -18.5337086 19.7761189 11.2587106
2.0391861 -0.1343718 0.8709852 -0.000960 0.001213 0.002287 12.0655824 -5.2772819 8.8004575 61.5345179 -13.7068660 28.8727768 11.6060548
1.9945120 -0.0875102 0.9421439 -0.002367 0.000666 0.002680 8.4750148 -2.6577948 8.7268899 55.9104438 -8.8334862 36.4658486 12.4527985
1.9332009 -0.0421767 1.0019973 -0.003479 0.000167 0.002637 4.7176611 -0.8222746 6.6272346 48.6533422 -4.1587885 42.2711330 13.5832457
1.8588464 0.0000004 1.0495777 -0.004175 -0.000001 0.002303 1.9198144 -0.0000013 3.6592614 40.7216874 0.0006886 46.2095401 14.8860979
1.7747032 0.0380003 1.0851524 -0.004395 -0.000045 0.001770 0.3384517 0.0822120 0.8897575 32.8801487 3.6294250 48.5889564 16.2100692
1.6832952 0.0713172 1.1097618 -0.004276 0.000187 0.001181 -0.3046499 -0.1901768 -1.1511008 25.6301326 6.6106780 49.7360833 17.4923754
1.5862881 0.0997781 1.1247986 -0.003857 0.000360 0.000643 -0.4082407 -0.5415164 -2.4085706 19.1816925 9.1015376 50.0574963 18.6664146
1.4845258 0.1233590 1.1317233 -0.003333 0.000576 0.000205 -0.2731895 -0.8324136 -3.0308412 13.6389720 11.0990162 49.8581432 19.7458484
2.1113104 -0.1402428 0.7096823 0.000564 0.001553 0.000970 22.6010499 -8.9120234 5.0629125 71.6605862 -14.5299520 10.5050248 9.8953797
2.0976170 -0.0932100 0.7962949 -0.000419 0.001007 0.001893 21.3828032 -5.7492965 9.7226050 69.8647848 -9.6336141 20.7060585 10.0142575
2.0611108 -0.0457085 0.8760601 -0.001586 0.000457 0.002569 16.2230345 -2.3009763 11.5296502 64.7886876 -4.6943349 29.7437858 10.8849953
2.0049667 0.0000004 0.9452767 -0.002670 0.000000 0.002810 9.9591743 -0.0000025 10.1151638 57.3593219 -0.0001760 37.0391908 12.0280655
1.9332009 0.0421774 1.0019974 -0.003475 -0.000165 0.002635 4.7176177 0.8222632 6.6271742 48.6518762 4.1584015 42.2717423 13.5823081
1.8497330 0.0797620 1.0458838 -0.003911 -0.000140 0.002162 1.4974339 0.6130470 2.9019150 39.7370598 7.7033421 45.6108047 15.0180916
1.7577690 0.1122761 1.0777124 -0.003917 0.000100 0.001501 -0.0496101 -0.0376433 -0.1355308 31.3373062 10.5586124 47.4326872 16.5776682
1.6595753 0.1396202 1.0988561 -0.003676 0.000358 0.000869 -0.4996845 -0.6713368 -2.0266644 23.8443828 12.8545069 48.1760199 17.8446935
1.5565055 0.1618743 1.1108852 -0.003239 0.000659 0.000305 -0.4626818 -1.1657710 -3.1037722 17.3768661 14.6086652 48.2225838 19.1547954
2.1349780 -0.0478012 0.7115766 0.000001 0.000560 0.001086 29.7192416 -3.8094295 6.4979518 75.4201184 -4.9497554 10.8056484 9.0139303
2.1092735 0.0000005 0.7981453 -0.000744 0.000000 0.002031 24.5038402 -0.0000018 11.0043202 71.6774128 0.0002375 20.9921655 9.6574888
2.0611108 0.0457094 0.8760601 -0.001588 -0.000455 0.002571 16.2230796 2.3009782 11.5296831 64.7894156 4.6942548 29.7433262 10.8854492
1.9945120 0.0875111 0.9421439 -0.002368 -0.000665 0.002681 8.4750247 2.6577937 8.7269014 55.9105771 8.8341261 36.4655874 12.4530537
1.9138673 0.1243298 0.9951021 -0.002820 -0.000611 0.002315 3.1834443 1.7188766 4.6079381 46.2600516 12.2544318 41.0841407 14.1193022
1.8230534 0.1557333 1.0351498 -0.003058 -0.000255 0.001720 0.4342867 0.3752642 0.8851899 36.9246857 14.8945664 43.8458180 15.7673670
1.7250066 0.1817053 1.0634381 -0.002936 0.000135 0.001024 -0.5688158 -0.7819166 -1.6818389 28.4621933 16.9247399 45.2613739 17.2713862
1.6216640 0.2024293 1.0815464 -0.002721 0.000518 0.000414 -0.6784578 -1.5560785 -3.1167747 21.1535829 18.4236658 45.7517582 18.6279197
2.1349780 0.0478022 0.7115766 0.000002 -0.000558 0.001082 29.7192100 3.8094233 6.4979454 75.4197579 4.9496041 10.8065516 9.0134824
2.0976170 0.0932109 0.7962949 -0.000419 -0.001007 0.001894 21.3827827 5.7492878 9.7225970 69.8647992 9.6333729 20.7058889 10.0141978
2.0391861 0.1343727 0.8709852 -0.000958 -0.001211 0.002284 12.0655494 5.2772640 8.8004353 61.5337730 13.7065598 28.8735155 11.6055444
1.9641040 0.1702156 0.9331284 -0.001481 -0.001054 0.002203 5.0517309 3.3131018 5.4230157 51.8313524 16.9687855 34.9111883 13.2600560
1.8767095 0.2003580 0.9820192 -0.001814 -0.000704 0.001757 1.0325475 0.9922175 1.5885536 41.9847438 19.4178299 38.8937104 15.0767626
1.7805883 0.2248631 1.0182916 -0.001955 -0.000177 0.001105 -0.5950208 -0.8464117 -1.3227960 32.8279414 21.1650554 41.2258114 16.6130797
1.6783223 0.2440024 1.0433459 -0.001903 0.000292 0.000469 -0.9360626 -2.0566980 -3.1366369 24.7883432 22.3573405 42.3688518 18.1644031
2.1113104 0.1402438 0.7096823 0.000563 -0.001552 0.000973 22.6010883 8.9120368 5.0629221 71.6610148 14.5299042 10.5043094 9.8957398
2.0639749 0.1806383 0.7910260 0.000366 -0.001738 0.001654 13.8039589 7.7203421 6.5161248 64.6620499 18.5341892 19.7762137 11.2588305
1.9975064 0.2154693 0.8615032 0.000086 -0.001707 0.001839 6.2040813 4.7828335 4.7692193 55.6205922 21.7041055 27.1825033 12.9138491
1.9162547 0.2444001 0.9192005 -0.000281 -0.001289 0.001606 1.4234118 1.5114257 1.6401202 45.8468713 23.9393443 32.4869445 14.6492204
1.8242615 0.2675530 0.9638748 -0.000511 -0.000719 0.001071 -0.7270779 -1.0836954 -1.2294761 36.4003273 25.4146974 35.9332550 16.3171434
1.7247567 0.2852582 0.9964726 -0.000756 -0.000078 0.000476 -1.2390725 -2.6985094 -3.1313266 27.9655548 26.3145871 37.9544892 17.8373687
2.0667477 0.2240663 0.7061909 0.001488 -0.002162 0.000773 12.6081063 8.7164186 2.9658678 64.7492135 23.0147627 9.9022648 11.4369835
2.0117866 0.2579700 0.7830505 0.001442 -0.002063 0.001178 6.0172113 5.3953389 3.0257881 57.1143901 26.0400269 18.3876293 12.7885648
1.9395879 0.2858956 0.8486377 0.001202 -0.001722 0.001225 1.3022243 1.5322788 1.0848657 48.1095539 28.1129556 24.9539076 14.4878321
1.8542138 0.3080038 0.9015080 0.000819 -0.001124 0.000925 -0.9797168 -1.5510416 -1.2505574 38.9697383 29.3971942 29.5921713 16.0319625
1.7594127 0.3246368 0.9418033 0.000566 -0.000492 0.000406 -1.5944277 -3.5341142 -3.0788956 30.4460576 30.0849818 32.6182703 17.6315313
2.0057357 0.2958893 0.7015599 0.002470 -0.002324 0.000565 4.2628004 4.4569203 1.0800447 55.9602840 29.7707437 9.0563818 13.2875643
1.9453580 0.3230301 0.7731909 0.002452 -0.002067 0.000839 0.5366371 0.7061590 0.2953175 48.3871764 31.7669255 16.6025679 14.6971390
1.8691979 0.3444696 0.8333345 0.002323 -0.001598 0.000665 -1.4652868 -2.5011476 -1.3632228 40.0389339 32.9477161 22.3818505 16.1756064
1.7811650 0.3605317 0.8809351 0.001929 -0.000898 0.000267 -1.9924580 -4.5980730 -2.9199626 31.9324452 33.4804608 26.4493209 17.6390432
1.9330053 0.3545645 0.6962282 0.003313 -0.002136 0.000279 -0.6319551 -0.9441881 -0.1770626 46.6400580 34.5935115 8.1291503 15.1578089
1.8686936 0.3755659 0.7620496 0.003213 -0.001696 0.000291 -2.0366216 -3.8122523 -1.2621416 39.6996956 35.7270372 14.8039948 16.3468735
1.7895391 0.3915247 0.8160556 0.002995 -0.001173 0.000121 -2.3741696 -5.8250501 -2.5497808 32.3816702 36.2861610 19.7826145 17.7639886
1.8526201 0.4006110 0.6904758 0.003927 -0.001793 0.000164 -2.5801336 -5.4093464 -0.8207528 37.8115755 37.8478354 7.1439504 16.9468687
1.7847926 0.4166150 0.7496493 0.003784 -0.001320 -0.000027 -2.6739295 -7.1215168 -1.9217192 31.6598339 38.3425224 12.8632412 18.0913210
1.7675501 0.4354491 0.6841520 0.004025 -0.001233 -0.000303 -2.7046279 -8.0060572 -1.0001716 30.0226970 39.6351983 6.2912433 18.4660554
1.7367869 0.4488864 0.6212289 0.003848 -0.001036 0.000008 -2.9174880 -10.0083854 -0.0000142 27.4067041 40.3186286 -0.0027170 19.0734991
1.8201567 0.4199494 0.6212287 0.003991 -0.001550 -0.000013 -2.7200465 -6.5830240 -0.0000077 34.6469535 39.0809957 0.0047582 17.4929397
1.9022977 0.3801869 0.6212285 0.003636 -0.001974 0.000004 -1.7999809 -3.1268451 -0.0000028 43.0626155 36.5887622 -0.0013414 15.9478401
1.9792446 0.3281423 0.6212284 0.003032 -0.002300 0.000000 1.7288046 2.1351506 0.0000013 52.3016836 32.6283535 -0.0004566 13.9990708
2.0469810 0.2628251 0.6212282 0.002128 -0.002303 -0.000004 8.8519072 7.4987126 0.0000021 61.7013575 26.8149661 0.0012819 12.1497986
2.1007781 0.1844782 0.6212281 0.001192 -0.001925 -0.000000 19.1737621 10.1699777 -0.0000015 69.9066021 19.0931990 -0.0001376 10.3074965
2.1357122 0.0953446 0.6212280 0.000452 -0.001117 0.000003 29.0023383 7.4101721 -0.0000073 75.4442544 9.8930252 -0.0011376 9.1035876
2.1478642 0.0000005 0.6212280 0.000166 0.000000 -0.000006 33.2264548 -0.0000008 -0.0000102 77.3984218 -0.0000998 0.0017262 8.5447234
2.1357122 -0.0953437 0.6212280 0.000451 0.001117 0.000003 29.0023295 -7.4101713 -0.0000073 75.4443008 -9.8926011 -0.0009675 9.1032867
2.1007781 -0.1844772 0.6212281 0.001191 0.001925 0.000000 19.1737953 -10.1699963 -0.0000015 69.9068045 -19.0933380 -0.0002762 10.3080452
2.0469810 -0.2628241 0.6212282 0.002127 0.002304 -0.000003 8.8518850 -7.4986943 0.0000021 61.7014510 -26.8145767 0.0011010 12.1495255
1.9792446 -0.3281413 0.6212284 0.003030 0.002301 -0.000001 1.7288601 -2.1352192 0.0000013 52.3020051 -32.6287265 -0.0001537 13.9997480
1.9022977 -0.3801859 0.6212285 0.003635 0.001975 0.000004 -1.8000040 3.1268855 -0.0000028 43.0628958 -36.5882390 -0.0015198 15.9474448
1.8201567 -0.4199484 0.6212287 0.003987 0.001551 -0.000011 -2.7199850 6.5828757 -0.0000077 34.6479607 -39.0814146 0.0039651 17.4945572
1.7367870 -0.4488854 0.6212289 0.003851 0.001038 0.000006 -2.9175199 10.0084961 -0.0000142 27.4054821 -40.3183626 -0.0019956 19.0729028
1.6786300 -0.4612364 0.5668651 0.004213 0.000895 0.000141 -3.0002734 12.8743158 1.2355396 22.7850772 -39.1411277 -4.7267321 19.8550857
1.6952949 -0.4479546 0.5076737 0.004044 0.000923 0.000183 -2.3318753 9.0684359 1.9901144 24.6581373 -40.0352311 -10.9493423 19.4215980
1.7029723 -0.4282870 0.4460462 0.003653 0.000841 0.000256 -2.2122782 7.9627431 2.8464599 25.3006947 -38.4861762 -17.0954484 19.2491249
1.6998115 -0.4025840 0.3846661 0.002581 0.000568 0.000198 -1.9652765 6.6968465 3.4517310 25.3944164 -36.3980553 -23.2800613 18.9458335
1.6849090 -0.3715265 0.3258411 0.001599 0.000276 0.000164 -1.6866112 5.5806475 3.8980020 24.5251788 -33.6038491 -29.1250331 18.9649328
1.6581269 -0.3361882 0.2716793 0.000333 -0.000109 0.000119 -1.3397828 4.4326013 4.0513869 22.9610072 -30.3749023 -34.4540953 18.9143666
1.6199913 -0.2979056 0.2238753 -0.000742 -0.000410 0.000072 -1.0067497 3.4530697 4.0489933 20.6891894 -26.8598135 -39.0356702 19.1597677
1.5715352 -0.2581071 0.1835730 -0.001753 -0.000674 0.000056 -0.7013871 2.6196505 3.9042187 17.9850277 -23.1778260 -42.7960505 19.3483703
1.5141029 -0.2181419 0.1513197 -0.002327 -0.000775 0.000058 -0.4483453 1.9695726 3.7284034 14.9527666 -19.5431428 -45.7103418 19.8127370
1.4491610 -0.1791568 0.1271189 -0.002766 -0.000803 0.000078 -0.2378553 1.4304615 3.4671926 11.9319911 -16.0166115 -47.8937637 20.1208577
1.3781590 -0.1420359 0.1105492 -0.002747 -0.000718 0.000104 -0.0783173 1.0460935 3.3075813 8.9257990 -12.6897803 -49.3728621 20.6910845
1.3024613 -0.1073994 0.1008951 -0.002638 -0.000560 0.000111 0.0464656 0.7212401 3.0777140 6.1848339 -9.6210633 -50.3761473 21.0563059
1.2233789 -0.0756449 0.0972649 -0.002308 -0.000385 0.000138 0.1451583 0.4934071 3.0205834 3.6889849 -6.7957783 -50.9109379 21.6058295
1.1422775 -0.0470024 0.0986556 -0.002026 -0.000241 0.000188 0.2159546 0.2892880 2.8616338 1.5874442 -4.2223956 -51.2165002 21.9318125
1.0613290 -0.0217419 0.1039493 -0.001626 -0.000014 0.000025 0.5513742 0.2498607 5.6260828 -0.2413901 -1.8750670 -50.3254225 22.4636605
1.7675500 0.4354493 0.5583055 0.004021 -0.001233 0.000308 -2.7045627 -8.0058686 1.0001268 30.0228998 39.6359959 -6.2928345 18.4684990
1.7847925 0.4166153 0.4928082 0.003775 -0.001319 0.000018 -2.6739569 -7.1215978 1.9217223 31.6639112 38.3418689 -12.8594833 18.0884743
1.7895390 0.3915252 0.4264016 0.003002 -0.001175 -0.000117 -2.3741311 -5.8249653 2.5497276 32.3784263 36.2874364 -19.7846217 17.7673633
1.7811648 0.3605324 0.3615220 0.001934 -0.000898 -0.000264 -1.9924814 -4.5981371 2.9199892 31.9308407 33.4801163 -26.4506445 17.6394036
1.7594125 0.3246375 0.3006536 0.000558 -0.000493 -0.000411 -1.5944016 -3.5340661 3.0788410 30.4494111 30.0860365 -32.6161919 17.6296687
1.7247564 0.2852589 0.2459842 -0.000746 -0.000079 -0.000474 -1.2390888 -2.6985539 3.1313661 27.9615870 26.3149080 -37.9558415 17.8389305
1.6783219 0.2440031 0.1991108 -0.001897 0.000292 -0.000468 -0.9360512 -2.0566808 3.1365987 24.7861518 22.3578841 -42.3692788 18.1677864
1.6216636 0.2024299 0.1609101 -0.002725 0.000519 -0.000416 -0.6784716 -1.5561171 3.1168398 21.1560012 18.4233259 -45.7512437 18.6213008
1.5565051 0.1618749 0.1315712 -0.003232 0.000658 -0.000306 -0.4626595 -1.1657206 3.1036253 17.3743099 14.6102555 -48.2227099 19.1597806
1.4845253 0.1233595 0.1107330 -0.003319 0.000577 -0.000206 -0.2732345 -0.8325556 3.0313450 13.6332287 11.0980768 -49.8579489 19.7461761
1.4072226 0.0875821 0.0976658 -0.003241 0.000497 -0.000092 -0.1172006 -0.5653333 2.9744522 10.1621674 7.8259216 -50.8683660 20.3182980
1.3258462 0.0549640 0.0914299 -0.002873 0.000313 -0.000002 0.0115318 -0.3327628 2.8273142 6.9799109 4.9150069 -51.4135586 20.9059326
1.2413330 0.0257170 0.0910096 -0.002477 0.000159 0.000064 0.1086663 -0.1455726 2.6529991 4.1938841 2.2970236 -51.6728337 21.4641187
1.1540008 0.0000001 0.0954106 -0.002035 -0.000001 -0.000011 0.1692840 0.0000015 2.3548798 1.7866441 0.0000305 -51.7670549 21.9397506
1.8526200 0.4006112 0.5519815 0.003932 -0.001792 -0.000155 -2.5801959 -5.4094801 0.8207613 37.8100869 37.8469433 -7.1489844 16.9459367
1.8686935 0.3755662 0.4804075 0.003215 -0.001697 -0.000292 -2.0366098 -3.8122344 1.2621275 39.6986399 35.7278591 -14.8031815 16.3480754
1.8691977 0.3444700 0.4091224 0.002315 -0.001595 -0.000672 -1.4653387 -2.5012404 1.3632675 40.0423334 32.9463143 -22.3796078 16.1721357
1.8542136 0.3080043 0.3409488 0.000823 -0.001125 -0.000925 -0.9797189 -1.5510484 1.2505585 38.9681760 29.3978721 -29.5926193 16.0341075
1.8242612 0.2675535 0.2785818 -0.000509 -0.000717 -0.001070 -0.7271142 -1.0837525 1.2295369 36.3995532 25.4134248 -35.9341601 16.3172011
1.7805880 0.2248636 0.2241649 -0.001967 -0.000178 -0.001112 -0.5950192 -0.8464121 1.3227925 32.8328527 21.1653719 -41.2234915 16.6101916
1.7250063 0.1817059 0.1790183 -0.002931 0.000135 -0.001024 -0.5688329 -0.7819431 1.6818903 28.4603603 16.9240203 -45.2622551 17.2728047
1.6595749 0.1396207 0.1436002 -0.003676 0.000357 -0.000870 -0.4996734 -0.6713249 2.0266212 23.8443585 12.8548425 -48.1759793 17.8480230
1.5862877 0.0997785 0.1176576 -0.003868 0.000361 -0.000646 -0.4082498 -0.5415311 2.4086270 19.1864413 9.1000466 -50.0570301 18.6599642
1.5068534 0.0629618 0.1004511 -0.003867 0.000331 -0.000421 -0.2687432 -0.3551153 2.5865067 14.8377736 5.6733888 -51.1699922 19.3049812
1.4225555 0.0296245 0.0909844 -0.003448 0.000115 -0.000215 -0.1301406 -0.1726960 2.7221604 10.8083002 2.6803562 -51.6743170 20.1360336
1.3341082 0.0000002 0.0881770 -0.003133 0.000005 -0.000055 0.0003685 0.0000019 2.6511217 7.3305682 -0.0030700 -51.8036881 20.6845499
1.2413330 -0.0257167 0.0910096 -0.002477 -0.000160 0.000058 0.1088083 0.1457670 2.6564617 4.1942890 -2.2960061 -51.6697253 21.4666852
1.9330053 0.3545647 0.5462287 0.003309 -0.002137 -0.000292 -0.6319017 -0.9441089 0.1770462 46.6415405 34.5941646 -8.1246493 15.1582648
1.9453578 0.3230304 0.4692659 0.002457 -0.002066 -0.000831 0.5366033 0.7061154 -0.2952981 48.3858009 31.7664886 -16.6058313 14.6973963
1.9395877 0.2858959 0.3938190 0.001205 -0.001723 -0.001224 1.3022599 1.5323233 -1.0848942 48.1082586 28.1142392 -24.9545288 14.4898219
1.9162545 0.2444006 0.3232560 -0.000286 -0.001288 -0.001611 1.4233746 1.5113895 -1.6400770 45.8489192 23.9388338 -32.4854489 14.6462346
1.8767093 0.2003585 0.2604372 -0.001808 -0.000706 -0.001755 1.0325669 0.9922389 -1.5885839 41.9824572 19.4191067 -38.8949178 15.0794966
1.8230531 0.1557337 0.2073065 -0.003051 -0.000254 -0.001718 0.4342551 0.3752381 -0.8851262 36.9219219 14.8942917 -43.8468715 15.7679165
1.7577686 0.1122764 0.1647439 -0.003925 0.000099 -0.001505 -0.0495984 -0.0376345 0.1354989 31.3406218 10.5594693 -47.4314651 16.5745327
1.6832948 0.0713174 0.1326944 -0.004265 0.000187 -0.001181 -0.3046752 -0.1901934 1.1511973 25.6259634 6.6107160 -49.7367914 17.4936217
1.6017039 0.0337287 0.1104496 -0.004258 0.000161 -0.000827 -0.3539252 -0.1471163 1.9648837 20.1841231 3.0691345 -51.0457104 18.4055371
1.5145117 0.0000002 0.0969414 -0.003964 -0.000000 -0.000496 -0.2657662 0.0000015 2.4459805 15.2320143 0.0008410 -51.6107345 19.2816668
1.4225555 -0.0296242 0.0909844 -0.003445 -0.000116 -0.000215 -0.1301421 0.1727016 2.7221910 10.8062376 -2.6792239 -51.6742921 20.1349213
1.3258462 -0.0549636 0.0914300 -0.002877 -0.000320 -0.000001 0.0115279 0.3326545 2.8263585 6.9814525 -4.9100939 -51.4151935 20.9048254
2.0057356 0.2958894 0.5408967 0.002472 -0.002323 -0.000560 4.2627395 4.4568591 -1.0800252 55.9596617 29.7701587 -9.0582681 13.2870081
2.0117865 0.2579703 0.4594060 0.001436 -0.002064 -0.001191 6.0172081 5.3953422 -3.0257839 57.1163955 26.0403361 -18.3833038 12.7877019
1.9975062 0.2154696 0.3809532 0.000090 -0.001705 -0.001835 6.2040119 4.7827881 -4.7691661 55.6194553 21.7029486 -27.1845021 12.9139609
1.9641038 0.1702159 0.3093279 -0.001480 -0.001056 -0.002204 5.0517323 3.3131101 -5.4230200 51.8312318 16.9694280 -34.9109899 13.2614883
1.9138670 0.1243300 0.2473541 -0.002828 -0.000609 -0.002321 3.1834041 1.7188596 -4.6078835 46.2630107 12.2530648 -41.0823682 14.1159399
1.8497327 0.0797622 0.1965724 -0.003910 -0.000141 -0.002163 1.4974481 0.6130548 -2.9019454 39.7366929 7.7037828 -45.6112025 15.0207352
1.7747028 0.0380004 0.1573037 -0.004391 -0.000044 -0.001770 0.3384361 0.0822085 -0.8897175 32.8786869 3.6284012 -48.5894578 16.2113359
1.6913799 0.0000003 0.1289637 -0.004596 0.000002 -0.001327 -0.2039795 0.0000004 0.7531509 26.2921291 -0.0011377 -50.2907795 17.2192372
1.6017039 -0.0337282 0.1104496 -0.004261 -0.000160 -0.000827 -0.3539128 0.1471133 1.9648143 20.1855579 -3.0691955 -51.0457508 18.4071842
1.5068534 -0.0629614 0.1004512 -0.003867 -0.000328 -0.000421 -0.2687485 0.3551254 2.5865569 14.8380186 -5.6755605 -51.1695597 19.3047989
1.4072227 -0.0875817 0.0976659 -0.003243 -0.000491 -0.000093 -0.1172199 0.5654304 2.9749416 10.1630597 -7.8289450 -50.8673543 20.3201743
2.0667477 0.2240664 0.5362654 0.001488 -0.002163 -0.000769 12.6081443 8.7164498 -2.9658754 64.7489356 23.0152895 -9.9040045 11.4379160
2.0639748 0.1806385 0.4514303 0.000369 -0.001738 -0.001648 13.8039175 7.7203276 -6.5161085 64.6609147 18.5342053 -19.7782015 11.2590666
2.0391859 0.1343729 0.3714709 -0.000963 -0.001212 -0.002292 12.0655634 5.2772790 -8.8004525 61.5355796 13.7073717 -28.8710899 11.6046224
1.9945118 0.0875112 0.3003122 -0.002361 -0.000665 -0.002676 8.4749722 2.6577831 -8.7268554 55.9082219 8.8338539 -36.4676430 12.4537011
1.9332007 0.0421775 0.2404587 -0.003471 -0.000167 -0.002633 4.7176230 0.8222664 -6.6271883 48.6506690 4.1597083 -42.2726139 13.5839069
1.8588460 0.0000004 0.1928784 -0.004178 0.000000 -0.002307 1.9197743 -0.0000013 -3.6591888 40.7231957 0.0003187 -46.2083604 14.8820638
1.7747028 -0.0379998 0.1573037 -0.004387 0.000045 -0.001769 0.3384166 -0.0822045 -0.8896660 32.8769211 -3.6280531 -48.5898928 16.2108961
1.6832948 -0.0713168 0.1326944 -0.004266 -0.000189 -0.001180 -0.3046766 0.1901953 1.1512024 25.6265299 -6.6086033 -49.7369933 17.4928358