# volRat = 0.650000
# viscRat = 5.000000
# alpha = 1.000000
# shRate = 2.250000
# tnum = 6800
# time = 7.259667
VARIABLES = X, Y, Z, U, V, W, F_B0, F_B1, F_B2, F_0, F_1, F_2, T
ZONE N=2562 E=5120 F=FEPOINT ET=TRIANGLE
1.6572843 0.4676705 0.6212293 0.002977 -0.000565 0.000002 3.1257399 14.7120252 0.0000268 23.6093138 51.4730132 0.0003001 20.0251267
-1.6572843 0.4676705 0.6212293 -0.002977 -0.000565 0.000002 -3.1257292 14.7120236 0.0000274 -23.6093041 51.4730115 0.0003005 20.0251270
1.6572843 -0.4676697 0.6212293 0.002988 0.000565 0.000000 3.1256698 -14.7117513 0.0000274 23.6046671 -51.4729705 0.0008334 20.0222645
-1.6572843 -0.4676697 0.6212293 -0.002988 0.000565 0.000000 -3.1256811 -14.7117557 0.0000268 -23.6046768 -51.4729761 0.0008329 20.0222647
0.9839994 0.0000001 1.1303465 -0.001704 -0.000014 -0.000594 -1.9884747 -0.0000590 17.8442450 -2.5081219 0.0071355 59.9112307 22.6249010
0.9839990 0.0000001 0.1121096 -0.001771 -0.000018 -0.000654 -1.7703161 -0.0000608 -15.8865306 -2.3354351 0.0050792 -57.9919166 22.6253635
-0.9839994 0.0000001 1.1303465 0.001704 -0.000014 -0.000594 1.9884750 -0.0000016 17.8442473 2.5081223 0.0071682 59.9112328 22.6249012
-0.9839990 0.0000001 0.1121096 0.001771 -0.000018 -0.000654 1.7703160 -0.0000495 -15.8865292 2.3354351 0.0050860 -57.9919154 22.6253637
-0.0000000 0.3402247 0.8369224 -0.000000 -0.002004 -0.000654 0.0000192 -69.2260134 -39.6451268 0.0000185 -16.2837840 -5.2581590 25.6703045
-0.0000000 -0.3402247 0.8369225 -0.000000 0.000718 0.000200 0.0000027 80.0706544 -45.8614425 0.0000026 26.9667282 -11.4064272 25.6285959
-0.0000000 0.3402271 0.4055356 -0.000000 0.000278 -0.000578 0.0000003 -72.4740403 41.5037127 0.0000004 -19.4287030 7.0298535 25.6989276
-0.0000000 -0.3402268 0.4055357 -0.000000 -0.000948 -0.001101 0.0000029 82.4402178 47.2174623 0.0000029 29.2599038 12.7017141 25.6507994
1.6800359 0.4608985 0.6755891 0.004230 -0.000898 -0.000140 -3.0240559 -12.8977727 -1.2387307 22.8651534 39.1026812 4.7281213 19.8387665
1.6966030 0.4476106 0.7347745 0.004068 -0.000932 -0.000175 -2.3408274 -9.0529603 -1.9881976 24.7439469 40.0339606 10.9556857 19.4082869
1.7041706 0.4279509 0.7963926 0.003666 -0.000847 -0.000248 -2.2192831 -7.9475691 -2.8431048 25.3845616 38.4799304 17.1062205 19.2315177
1.7008966 0.4022711 0.8577603 0.002598 -0.000577 -0.000188 -1.9700305 -6.6817958 -3.4463468 25.4689515 36.3927631 23.2921939 18.9360920
1.6858847 0.3712514 0.9165713 0.001619 -0.000287 -0.000151 -1.6903807 -5.5689269 -3.8922430 24.5882758 33.5971612 29.1367586 18.9535320
1.6590032 0.3359631 0.9707196 0.000345 0.000099 -0.000108 -1.3425967 -4.4237899 -4.0454842 23.0169736 30.3690385 34.4646957 18.9046921
1.6207831 0.2977384 1.0185136 -0.000726 0.000403 -0.000065 -1.0091565 -3.4476534 -4.0443107 20.7336027 26.8535586 39.0460096 19.1536989
1.5722609 0.2580003 1.0588116 -0.001736 0.000662 -0.000048 -0.7034932 -2.6169693 -3.9012630 18.0200821 23.1772130 42.8014907 19.3439731
1.5147826 0.2180921 1.0910679 -0.002322 0.000773 -0.000055 -0.4501576 -1.9686754 -3.7270595 14.9851403 19.5407666 45.7154207 19.8051559
1.4498155 0.1791556 1.1152794 -0.002749 0.000799 -0.000076 -0.2393481 -1.4306911 -3.4674049 11.9528158 16.0188397 47.8961766 20.1197057
1.3788083 0.1420706 1.1318669 -0.002745 0.000710 -0.000100 -0.0794850 -1.0463931 -3.3074979 8.9477780 12.6958416 49.3738351 20.6871411
1.3031234 0.1074546 1.1415443 -0.002636 0.000559 -0.000116 0.0454716 -0.7205779 -3.0732487 6.2034827 9.6262659 50.3821930 21.0492118
1.2240680 0.0757047 1.1452009 -0.002307 0.000394 -0.000123 0.1450876 -0.4962412 -3.0356484 3.7047139 6.7949634 50.8973189 21.6065946
1.1430022 0.0470519 1.1438372 -0.002018 0.000231 -0.000128 0.2197812 -0.2955891 -2.9211649 1.5981014 4.2307410 51.1574192 21.9252620
1.0620898 0.0217698 1.1385675 -0.001647 0.000022 -0.000104 0.5444173 -0.2474749 -5.5661207 -0.2242032 1.8777374 50.3844967 22.4558146
1.7687276 -0.4350394 0.6841470 0.004030 0.001232 -0.000306 -2.7110093 7.9875364 -0.9987320 30.1155452 -39.6199475 6.2967933 18.4490874
1.7858627 -0.4162067 0.7496338 0.003786 0.001321 -0.000013 -2.6746329 7.0931742 -1.9157750 31.7543221 -38.3332948 12.8690385 18.0741654
1.7905004 -0.3911360 0.8160250 0.003017 0.001181 0.000128 -2.3723512 5.7979886 -2.5401385 32.4598465 -36.2782155 19.7948839 17.7523240
1.7820227 -0.3601803 0.8808861 0.001943 0.000900 0.000273 -1.9897919 4.5755106 -2.9080037 32.0045953 -33.4680219 26.4641075 17.6253284
1.7601785 -0.3243376 0.9417361 0.000575 0.000501 0.000422 -1.5921325 3.5173269 -3.0665237 30.5092448 -30.0758138 32.6284014 17.6210973
1.7254472 -0.2850216 0.9963906 -0.000732 0.000089 0.000486 -1.2379439 2.6876459 -3.1206809 28.0122517 -26.3066716 37.9656962 17.8297979
1.6789571 -0.2438324 1.0432556 -0.001882 -0.000286 0.000476 -0.9363130 2.0510674 -3.1295973 24.8269231 -22.3504577 42.3765638 18.1589706
1.6222640 -0.2023235 1.0814562 -0.002713 -0.000512 0.000422 -0.6790890 1.5528046 -3.1112574 21.1896071 -18.4196389 45.7579415 18.6180637
1.5570912 -0.1618241 1.1108039 -0.003224 -0.000648 0.000314 -0.4637645 1.1645991 -3.1011099 17.4030339 -14.6112702 48.2256370 19.1534521
1.4851165 -0.1233513 1.1316589 -0.003320 -0.000580 0.000208 -0.2743119 0.8321962 -3.0298583 13.6608933 -11.0966179 49.8619788 19.7407315
1.4078357 -0.0876002 1.1447490 -0.003230 -0.000494 0.000094 -0.1182336 0.5655237 -2.9745939 10.1797957 -7.8291739 50.8702002 20.3164676
1.3264943 -0.0549912 1.1510117 -0.002883 -0.000305 0.000008 0.0106860 0.3334247 -2.8314293 7.0034370 -4.9216882 51.4112649 20.9010618
1.2420238 -0.0257370 1.1514599 -0.002487 -0.000169 -0.000061 0.1079164 0.1456423 -2.6521714 4.2143524 -2.2931125 51.6761677 21.4570283
1.1547337 0.0000001 1.1470848 -0.002036 0.000006 -0.000066 0.1635144 0.0000020 -2.2820915 1.7976424 -0.0048186 51.8401070 21.9440573
1.8535624 -0.4001533 0.6904655 0.003942 0.001794 0.000160 -2.5706575 5.3694956 -0.8155391 37.9034477 -37.8363726 7.1534040 16.9304757
1.8695261 -0.3751213 0.7620216 0.003224 0.001699 0.000297 -2.0225328 3.7730649 -1.2504342 39.7856697 -35.7154498 14.8129176 16.3346227
1.8699291 -0.3440598 0.8332836 0.002327 0.001599 0.000679 -1.4505481 2.4682970 -1.3466299 40.1188871 -32.9327421 22.3916325 16.1629393
1.8548582 -0.3076473 0.9014326 0.000840 0.001134 0.000935 -0.9669181 1.5263884 -1.2317996 39.0327466 -29.3866030 29.6041790 16.0256493
1.8248386 -0.2672631 0.9637782 -0.000496 0.000720 0.001077 -0.7181234 1.0674896 -1.2120806 36.4545868 -25.4007781 35.9463406 16.3091642
1.7811200 -0.2246458 1.0181812 -0.001948 0.000189 0.001119 -0.5900428 0.8372115 -1.3093333 32.8764778 -21.1579156 41.2322279 16.6080267
1.7255152 -0.1815589 1.0633239 -0.002921 -0.000124 0.001033 -0.5651220 0.7749366 -1.6677514 28.4970022 -16.9184818 45.2756298 17.2681317
1.6600813 -0.1395357 1.0987483 -0.003662 -0.000355 0.000873 -0.4992062 0.6690228 -2.0204542 23.8756925 -12.8505810 48.1818367 17.8436253
1.5868100 -0.0997415 1.1247066 -0.003851 -0.000356 0.000649 -0.4086429 0.5405477 -2.4047058 19.2107713 -9.0997399 50.0622141 18.6592273
1.5074069 -0.0629553 1.1419358 -0.003858 -0.000325 0.000423 -0.2695005 0.3548197 -2.5842591 14.8610930 -5.6759453 51.1739392 19.3002728
1.4231514 -0.0296300 1.1514296 -0.003449 -0.000123 0.000217 -0.1310463 0.1727138 -2.7216572 10.8321434 -2.6773329 51.6773908 20.1316830
1.3347525 0.0000001 1.1542654 -0.003116 -0.000004 0.000054 -0.0004429 0.0000018 -2.6477441 7.3428023 0.0027657 51.8096792 20.6842278
1.2420238 0.0257372 1.1514599 -0.002488 0.000165 -0.000059 0.1080058 -0.1457590 -2.6543671 4.2158212 2.2944635 51.6742460 21.4599928
1.9337098 -0.3540888 0.6962093 0.003317 0.002133 0.000293 -0.6029628 0.8981386 -0.1686142 46.7285261 -34.5779473 8.1296990 15.1471274
1.9459592 -0.3225848 0.7731445 0.002466 0.002063 0.000837 0.5677336 -0.7449978 0.3119006 48.4637215 -31.7493357 16.6137030 14.6857172
1.9401043 -0.2855034 0.8485597 0.001218 0.001720 0.001227 1.3298894 -1.5608034 1.1062157 48.1750416 -28.0972071 24.9648243 14.4798393
1.9167098 -0.2440778 0.9190932 -0.000269 0.001288 0.001615 1.4440877 -1.5297052 1.6615666 45.9042560 -23.9238998 32.4958122 14.6415761
1.8771291 -0.2001137 0.9818906 -0.001787 0.000711 0.001760 1.0461831 -1.0030530 1.6072992 42.0277244 -19.4088563 38.9032643 15.0731303
1.8234620 -0.1555660 1.0350117 -0.003034 0.000254 0.001722 0.4421665 -0.3812479 0.8999742 36.9612774 -14.8850163 43.8550233 15.7627885
1.7581883 -0.1121766 1.0775774 -0.003900 -0.000088 0.001508 -0.0463401 0.0350871 -0.1264024 31.3706669 -10.5567003 47.4362885 16.5722179
1.6837429 -0.0712702 1.1096411 -0.004251 -0.000179 0.001185 -0.3033816 0.1889660 -1.1442397 25.6559003 -6.6100691 49.7413999 17.4890788
1.6021939 -0.0337150 1.1319082 -0.004248 -0.000164 0.000830 -0.3539681 0.1467626 -1.9605449 20.2108797 -3.0667343 51.0500811 18.4006503
1.5150527 0.0000001 1.1454437 -0.003953 0.000002 0.000497 -0.2664441 0.0000015 -2.4437203 15.2537026 -0.0020031 51.6150860 19.2805153
1.4231514 0.0296303 1.1514296 -0.003446 0.000122 0.000218 -0.1310517 -0.1727172 -2.7217675 10.8303444 2.6767290 51.6770333 20.1283764
1.3264943 0.0549914 1.1510118 -0.002885 0.000310 0.000006 0.0106833 -0.3333362 -2.8307115 7.0039935 4.9158103 51.4129168 20.9009782
2.0062103 -0.2954360 0.7015297 0.002479 0.002314 0.000561 4.3088850 -4.4936281 1.0902114 56.0350762 -29.7508753 9.0626654 13.2773401
2.0121746 -0.2575687 0.7829818 0.001451 0.002061 0.001191 6.0592611 -5.4201970 3.0431938 57.1802787 -26.0237675 18.3906857 12.7851697
1.9978362 -0.2151399 0.8613957 0.000108 0.001703 0.001837 6.2364060 -4.7971161 4.7886529 55.6729896 -21.6882482 27.1917949 12.9094856
1.9644068 -0.1699690 0.9329898 -0.001457 0.001056 0.002202 5.0742034 -3.3208817 5.4412157 51.8755442 -16.9581413 34.9195402 13.2593943
1.9141719 -0.1241657 0.9949459 -0.002804 0.000606 0.002320 3.1973615 -1.7229329 4.6229695 46.3004011 -12.2442564 41.0894423 14.1163941
1.8500630 -0.0796707 1.0457253 -0.003888 0.000144 0.002163 1.5031569 -0.6141878 2.9095325 39.7676967 -7.6998570 45.6120018 15.0190158
1.7750762 -0.0379648 1.0850054 -0.004365 0.000046 0.001770 0.3417611 -0.0828522 0.8972231 32.9056488 -3.6268790 48.5935642 16.2089272
1.6918082 0.0000002 1.1133669 -0.004569 -0.000002 0.001326 -0.2022758 0.0000004 -0.7455824 26.3166677 0.0008195 50.2975841 17.2187116
1.6021939 0.0337153 1.1319083 -0.004253 0.000161 0.000830 -0.3539449 -0.1467508 -1.9604165 20.2132638 3.0674182 51.0501443 18.4027273
1.5074069 0.0629557 1.1419359 -0.003856 0.000319 0.000424 -0.2695047 -0.3548220 -2.5842994 14.8604755 5.6795629 51.1733477 19.3011061
1.4078357 0.0876004 1.1447491 -0.003233 0.000489 0.000095 -0.1182404 -0.5655524 -2.9747658 10.1816177 7.8311558 50.8698574 20.3193946
2.0670167 -0.2236853 0.7061482 0.001504 0.002153 0.000769 12.6557346 -8.7300417 2.9740599 64.8063627 -22.9980383 9.9069432 11.4337973
2.0641853 -0.1803307 0.7909353 0.000388 0.001729 0.001646 13.8403403 -7.7245696 6.5272861 64.7092508 -18.5188515 19.7832640 11.2564296
2.0393753 -0.1341513 0.8708519 -0.000936 0.001207 0.002286 12.0913894 -5.2780635 8.8115071 61.5756752 -13.6962729 28.8772608 11.6062418
1.9947146 -0.0873765 0.9419821 -0.002333 0.000665 0.002673 8.4931756 -2.6583791 8.7377493 55.9438835 -8.8276360 36.4727095 12.4523943
1.9334445 -0.0421191 1.0018250 -0.003440 0.000162 0.002628 4.7288528 -0.8226744 6.6364930 48.6801574 -4.1545529 42.2759758 13.5817029
1.8591494 0.0000002 1.0494120 -0.004130 0.000000 0.002295 1.9395673 -0.0000016 3.6927673 40.7715481 -0.0007086 46.2349201 14.8821189
1.7750762 0.0379652 1.0850055 -0.004361 -0.000047 0.001769 0.3417292 0.0828436 0.8971393 32.9040337 3.6267527 48.5936206 16.2071390
1.6837429 0.0712706 1.1096411 -0.004251 0.000181 0.001184 -0.3033823 -0.1889652 -1.1442425 25.6558263 6.6079873 49.7418258 17.4888602
1.5868100 0.0997418 1.1247067 -0.003846 0.000357 0.000648 -0.4086593 -0.5405667 -2.4048028 19.2087451 9.0981590 50.0624162 18.6567864
1.4851165 0.1233516 1.1316590 -0.003323 0.000583 0.000206 -0.2742982 -0.8321509 -3.0297073 13.6619323 11.0928146 49.8633537 19.7394556
2.1114203 -0.1399869 0.7096287 0.000582 0.001542 0.000979 22.6296930 -8.9055690 5.0653763 71.7037487 -14.5177950 10.5043265 9.8989895
2.0977075 -0.0930427 0.7961876 -0.000393 0.001005 0.001888 21.4019941 -5.7434077 9.7240696 69.9013819 -9.6267296 20.7109773 10.0188911
2.0612235 -0.0456307 0.8759115 -0.001556 0.000451 0.002562 16.2392778 -2.2989580 11.5323840 64.8217544 -4.6894086 29.7490751 10.8876922
2.0051343 0.0000003 0.9451063 -0.002644 -0.000000 0.002808 9.9745690 -0.0000041 10.1223389 57.3939183 0.0000476 37.0431231 12.0316253
1.9334445 0.0421197 1.0018251 -0.003444 -0.000165 0.002631 4.7288866 0.8226747 6.6365408 48.6817413 4.1549445 42.2753244 13.5827571
1.8500631 0.0796712 1.0457254 -0.003887 -0.000146 0.002163 1.5031651 0.6141885 2.9095487 39.7674400 7.7008900 45.6119657 15.0194733
1.7581883 0.1121771 1.0775775 -0.003904 0.000085 0.001510 -0.0463110 -0.0350649 -0.1263230 31.3723392 10.5575067 47.4359473 16.5738474
1.6600813 0.1395361 1.0987485 -0.003662 0.000352 0.000873 -0.4992035 -0.6690170 -2.0204437 23.8757858 12.8526034 48.1810821 17.8443897
1.5570912 0.1618245 1.1108041 -0.003227 0.000642 0.000315 -0.4637588 -1.1645813 -3.1010727 17.4042594 14.6137145 48.2248071 19.1561549
2.1350000 -0.0477107 0.7115164 0.000028 0.000553 0.001075 29.7255850 -3.8030707 6.4949940 75.4528421 -4.9455841 10.8103609 9.0185382
2.1093214 0.0000003 0.7980318 -0.000716 -0.000000 0.002029 24.5129587 -0.0000057 11.0008206 71.7094102 -0.0001627 20.9948088 9.6627152
2.0612235 0.0456313 0.8759115 -0.001554 -0.000453 0.002560 16.2392501 2.2989442 11.5323649 64.8209654 4.6894935 29.7495932 10.8871290
1.9947147 0.0873771 0.9419821 -0.002332 -0.000666 0.002673 8.4931741 2.6583714 8.7377486 55.9437170 8.8271289 36.4729703 12.4521677
1.9141719 0.1241662 0.9949460 -0.002800 -0.000607 0.002318 3.1973320 1.7229131 4.6229276 46.2990268 12.2436216 41.0900576 14.1151667
1.8234620 0.1555666 1.0350119 -0.003035 -0.000254 0.001722 0.4421623 0.3812435 0.8999659 36.9617594 14.8837668 43.8553139 15.7621021
1.7255152 0.1815593 1.0633240 -0.002916 0.000125 0.001031 -0.5651418 -0.7749621 -1.6678103 28.4949680 16.9173166 45.2763420 17.2664029
1.6222639 0.2023239 1.0814564 -0.002715 0.000514 0.000421 -0.6790848 -1.5527917 -3.1112391 21.1902743 18.4170906 45.7593042 18.6167470
2.1350000 0.0477114 0.7115164 0.000027 -0.000555 0.001079 29.7256053 3.8030617 6.4949987 75.4531763 4.9457527 10.8094398 9.0189212
2.0977075 0.0930434 0.7961876 -0.000393 -0.001005 0.001887 21.4020125 5.7434024 9.7240789 69.9014299 9.6267286 20.7111366 10.0190107
2.0393753 0.1341520 0.8708520 -0.000939 -0.001209 0.002289 12.0914188 5.2780687 8.8115299 61.5764688 13.6965443 28.8764913 11.6068024
1.9644068 0.1699696 0.9329899 -0.001458 -0.001057 0.002202 5.0742258 3.3208919 5.4412409 51.8759151 16.9585522 34.9192060 13.2600182
1.8771291 0.2001143 0.9818908 -0.001789 -0.000715 0.001762 1.0462113 1.0030787 1.6073430 42.0284412 19.4099537 38.9025305 15.0743415
1.7811200 0.2246463 1.0181814 -0.001948 -0.000190 0.001119 -0.5900295 -0.8371914 -1.3093042 32.8766344 21.1588570 41.2317397 16.6091299
1.6789571 0.2438329 1.0432558 -0.001886 0.000281 0.000479 -0.9363007 -2.0510373 -3.1295572 24.8282991 22.3522490 42.3752296 18.1606740
2.1114204 0.1399876 0.7096287 0.000584 -0.001544 0.000976 22.6296860 8.9055569 5.0653755 71.7033416 14.5178183 10.5050837 9.8986215
2.0641854 0.1803314 0.7909353 0.000388 -0.001730 0.001646 13.8403400 7.7245624 6.5272873 64.7093141 18.5185729 19.7831843 11.2562641
1.9978363 0.2151406 0.8613958 0.000111 -0.001704 0.001833 6.2363850 4.7970956 4.7886380 55.6718094 21.6880091 27.1928532 12.9086239
1.9167099 0.2440784 0.9190934 -0.000269 -0.001288 0.001614 1.4440783 1.5296937 1.6615562 45.9044932 23.9230207 32.4962457 14.6408453
1.8248386 0.2672637 0.9637784 -0.000493 -0.000720 0.001075 -0.7181476 -1.0675245 -1.2121219 36.4535397 25.3997308 35.9472586 16.3075779
1.7254472 0.2850222 0.9963909 -0.000732 -0.000089 0.000485 -1.2379481 -2.6876521 -3.1206928 28.0122537 26.3054520 37.9667294 17.8287412
2.0670167 0.2236860 0.7061483 0.001504 -0.002156 0.000772 12.6557572 8.7300516 2.9740659 64.8064306 22.9983075 9.9063207 11.4338888
2.0121747 0.2575694 0.7829819 0.001449 -0.002061 0.001191 6.0592912 5.4202204 3.0432098 57.1808297 26.0237896 18.3904809 12.7858348
1.9401044 0.2855041 0.8485599 0.001216 -0.001723 0.001231 1.3299129 1.5608299 1.1062356 48.1756900 28.0978353 24.9635645 14.4805479
1.8548583 0.3076480 0.9014328 0.000839 -0.001136 0.000935 -0.9668923 -1.5263466 -1.2317673 39.0327728 29.3874252 29.6037507 16.0270713
1.7601785 0.3243383 0.9417364 0.000573 -0.000504 0.000426 -1.5921159 -3.5172876 -3.0664932 30.5100350 30.0769000 32.6270537 17.6223049
2.0062103 0.2954368 0.7015297 0.002481 -0.002316 0.000558 4.3088726 4.4936129 1.0902086 56.0345660 29.7507807 9.0635034 13.2768817
1.9459593 0.3225856 0.7731446 0.002468 -0.002064 0.000836 0.5677222 0.7449826 0.3118945 48.4633706 31.7490743 16.6142257 14.6851424
1.8699291 0.3440605 0.8332838 0.002330 -0.001599 0.000675 -1.4505756 -2.4683424 -1.3466560 40.1180933 32.9319388 22.3930148 16.1615605
1.7820227 0.3601810 0.8808863 0.001942 -0.000901 0.000272 -1.9898039 -4.5755353 -2.9080226 32.0049672 33.4671470 26.4648174 17.6241450
1.9337098 0.3540896 0.6962093 0.003316 -0.002135 0.000298 -0.6029556 -0.8981275 -0.1686123 46.7287186 34.5780998 8.1284898 15.1472062
1.8695262 0.3751220 0.7620217 0.003221 -0.001700 0.000299 -2.0224999 -3.7730019 -1.2504145 39.7866729 35.7158038 14.8122032 16.3360975
1.7905004 0.3911368 0.8160251 0.003017 -0.001184 0.000133 -2.3723360 -5.7979484 -2.5401234 32.4596719 36.2791381 19.7933112 17.7532785
1.8535625 0.4001541 0.6904655 0.003945 -0.001795 0.000155 -2.5706820 -5.3695447 -0.8155473 37.9021993 37.8362968 7.1551976 16.9295246
1.7858627 0.4162074 0.7496339 0.003787 -0.001322 -0.000014 -2.6746484 -7.0932123 -1.9157872 31.7542966 38.3326928 12.8697055 18.0731089
1.7687277 0.4350402 0.6841470 0.004029 -0.001234 -0.000300 -2.7110058 -7.9875228 -0.9987312 30.1158833 39.6200849 6.2950478 18.4490762
1.7380678 0.4484960 0.6212292 0.003866 -0.001039 -0.000009 -2.9276260 -9.9908332 -0.0000151 27.4998498 40.3130480 0.0032859 19.0548942
1.8212131 0.4195032 0.6212290 0.003998 -0.001554 0.000014 -2.7171862 -6.5491447 -0.0000087 34.7442506 39.0730917 -0.0049554 17.4821960
1.9031172 0.3797073 0.6212289 0.003639 -0.001969 -0.000005 -1.7789209 -3.0799659 -0.0000035 43.1572976 36.5728165 0.0016858 15.9306757
1.9798274 0.3276642 0.6212288 0.003039 -0.002298 -0.000000 1.7703765 2.1804462 0.0000021 52.3847468 32.6119255 0.0006310 13.9902509
2.0473413 0.2623944 0.6212287 0.002139 -0.002293 0.000004 8.9041879 7.5252013 0.0000059 61.7685450 26.7951973 -0.0014242 12.1448611
2.1009501 0.1841477 0.6212286 0.001207 -0.001914 0.000000 19.2151758 10.1706999 0.0000065 69.9574601 19.0783530 0.0002680 10.3083137
2.1357557 0.0951639 0.6212285 0.000476 -0.001112 -0.000003 29.0165955 7.3995456 0.0000048 75.4806742 9.8854654 0.0012052 9.1069397
2.1478615 0.0000003 0.6212285 0.000191 0.000000 0.000006 33.2259918 -0.0000061 0.0000036 77.4315971 -0.0000547 -0.0018960 8.5549651
2.1357556 -0.0951632 0.6212285 0.000476 0.001111 -0.000003 29.0165945 -7.3995562 0.0000048 75.4806870 -9.8856647 0.0010439 9.1071855
2.1009501 -0.1841470 0.6212286 0.001208 0.001914 -0.000000 19.2151445 -10.1706911 0.0000066 69.9571405 -19.0784614 0.0004046 10.3077942
2.0473412 -0.2623936 0.6212287 0.002139 0.002292 0.000004 8.9041894 -7.5252067 0.0000059 61.7685822 -26.7954169 -0.0012787 12.1451548
1.9798273 -0.3276634 0.6212288 0.003041 0.002297 0.000000 1.7703435 -2.1804066 0.0000021 52.3841374 -32.6118266 0.0003761 13.9894720
1.9031171 -0.3797065 0.6212289 0.003638 0.001968 -0.000005 -1.7789091 3.0799467 -0.0000035 43.1574183 -36.5730947 0.0018190 15.9310655
1.8212130 -0.4195023 0.6212290 0.004003 0.001554 0.000012 -2.7172213 6.5492318 -0.0000087 34.7425046 -39.0730267 -0.0042040 17.4805616
1.7380677 -0.4484952 0.6212292 0.003860 0.001037 -0.000007 -2.9276051 9.9907659 -0.0000151 27.5018675 -40.3130506 0.0025740 19.0553345
1.6800358 -0.4608979 0.5668694 0.004235 0.000899 0.000141 -3.0239999 12.8975442 1.2386660 22.8622107 -39.1043081 -4.7289058 19.8438299
1.6966029 -0.4476101 0.5076839 0.004060 0.000927 0.000177 -2.3408716 9.0531422 1.9882064 24.7475384 -40.0318737 -10.9566834 19.4033436
1.7041705 -0.4279506 0.4460657 0.003661 0.000849 0.000238 -2.2192399 7.9474276 2.8430249 25.3863027 -38.4822391 -17.1009987 19.2335361
1.7008965 -0.4022710 0.3846979 0.002612 0.000574 0.000198 -1.9700709 6.6819473 3.4463975 25.4633076 -36.3912579 -23.2968798 18.9367384
1.6858846 -0.3712515 0.3258868 0.001609 0.000286 0.000147 -1.6903515 5.5688461 3.8921598 24.5923953 -33.5984875 -29.1340184 18.9543615
1.6590031 -0.3359633 0.2717383 0.000347 -0.000101 0.000108 -1.3426172 4.4238721 4.0455336 23.0168391 -30.3687454 -34.4647624 18.8996580
1.6207830 -0.2977387 0.2239441 -0.000719 -0.000405 0.000068 -1.0091499 3.4476445 4.0442750 20.7304756 -26.8549873 -39.0459323 19.1624717
1.5722608 -0.2580006 0.1836459 -0.001735 -0.000668 0.000051 -0.7035008 2.6170100 3.9012983 18.0202867 -23.1745038 -42.8029276 19.3371685
1.5147825 -0.2180925 0.1513895 -0.002331 -0.000769 0.000052 -0.4501359 1.9685913 3.7268742 14.9900667 -19.5451085 -45.7129798 19.8062762
1.4498153 -0.1791560 0.1271778 -0.002729 -0.000810 0.000080 -0.2394040 1.4310340 3.4682089 11.9446024 -16.0133177 -47.8981523 20.1224021
1.3788081 -0.1420709 0.1105902 -0.002753 -0.000707 0.000100 -0.0794393 1.0457970 3.3055834 8.9523540 -12.7012563 -49.3736313 20.6881372
1.3031232 -0.1074548 0.1009127 -0.002634 -0.000566 0.000122 0.0454859 0.7208180 3.0742392 6.2038550 -9.6202433 -50.3828162 21.0385034
1.2240677 -0.0757049 0.0972560 -0.002290 -0.000401 0.000127 0.1447631 0.4951392 3.0288670 3.6990513 -6.7997563 -50.9027006 21.6226068
1.1430019 -0.0470520 0.0986196 -0.001999 -0.000241 0.000089 0.2270666 0.3053958 3.0179924 1.5952255 -4.2166038 -51.0617193 21.9117269
1.0620894 -0.0217698 0.1038893 -0.001662 -0.000024 0.000182 0.5334607 0.2424955 5.4540330 -0.2235889 -1.8973994 -50.4923372 22.4524486
1.7687277 0.4350404 0.5583112 0.004033 -0.001234 0.000295 -2.7110513 -7.9876602 0.9987252 30.1156762 39.6194630 -6.2929324 18.4466486
1.7858627 0.4162078 0.4928242 0.003798 -0.001323 0.000024 -2.6746337 -7.0931792 1.9157575 31.7498186 38.3334612 -12.8735721 18.0761949
1.7905004 0.3911373 0.4264328 0.003010 -0.001182 -0.000137 -2.3723688 -5.7980361 2.5401441 32.4628979 36.2781899 -19.7907885 17.7499522
1.7820227 0.3601816 0.3615714 0.001939 -0.000901 -0.000276 -1.9897995 -4.5755330 2.9080056 32.0066608 33.4677393 -26.4630706 17.6237067
1.7601785 0.3243390 0.3007212 0.000583 -0.000503 -0.000420 -1.5921425 -3.5173537 3.0665369 30.5060668 30.0762281 -32.6291689 17.6247742
1.7254471 0.2850229 0.2460665 -0.000741 -0.000088 -0.000488 -1.2379446 -2.6876512 3.1206788 28.0162581 26.3053314 -37.9651977 17.8271487
1.6789570 0.2438336 0.1992014 -0.001890 0.000280 -0.000481 -0.9363141 -2.0510725 3.1295984 24.8306020 22.3523444 -42.3744605 18.1571826
1.6222638 0.2023246 0.1610007 -0.002708 0.000514 -0.000419 -0.6790756 -1.5527755 3.1111943 21.1871888 18.4173662 -45.7600320 18.6242662
1.5570910 0.1618251 0.1316529 -0.003231 0.000642 -0.000315 -0.4637809 -1.1646407 3.1012183 17.4067295 14.6128002 -48.2244664 19.1509875
1.4851163 0.1233521 0.1107979 -0.003336 0.000581 -0.000206 -0.2742468 -0.8319975 3.0291360 13.6681857 11.0937434 -49.8636208 19.7390216
1.4078354 0.0876008 0.0977077 -0.003216 0.000491 -0.000093 -0.1182817 -0.5657511 2.9757981 10.1743293 7.8292516 -50.8695333 20.3260554
1.3264940 0.0549916 0.0914450 -0.002902 0.000304 -0.000005 0.0106813 -0.3332871 2.8302814 7.0127215 4.9185704 -51.4134012 20.9004733
1.2420235 0.0257373 0.0909968 -0.002498 0.000175 0.000060 0.1082921 -0.1461480 2.6614194 4.2215560 2.2863770 -51.6681236 21.4536527
1.1547334 0.0000001 0.0953720 -0.002019 0.000002 0.000210 0.1547645 0.0000023 2.1599982 1.7881087 -0.0016107 -51.9609316 21.9646204
1.8535625 0.4001543 0.5519924 0.003941 -0.001796 -0.000165 -2.5706449 -5.3694696 0.8155221 37.9038473 37.8370414 -7.1499142 16.9303718
1.8695262 0.3751224 0.4804361 0.003219 -0.001698 -0.000298 -2.0225230 -3.7730483 1.2504201 39.7879300 35.7149833 -14.8124853 16.3347161
1.8699291 0.3440610 0.4091739 0.002339 -0.001600 -0.000666 -1.4505577 -2.4683154 1.3466343 40.1144667 32.9330574 -22.3957489 16.1651887
1.8548583 0.3076485 0.3410247 0.000836 -0.001134 -0.000936 -0.9669125 -1.5263812 1.2317901 39.0345134 29.3868062 -29.6028522 16.0246489
1.8248386 0.2672643 0.2786789 -0.000494 -0.000721 -0.001076 -0.7181400 -1.0675155 1.2121072 36.4545930 25.4007159 -35.9462654 16.3072054
1.7811200 0.2246469 0.2242757 -0.001934 -0.000189 -0.001112 -0.5900472 -0.8372187 1.3093423 32.8713229 21.1585456 -41.2340529 16.6122576
1.7255151 0.1815599 0.1791330 -0.002919 0.000125 -0.001032 -0.5651391 -0.7749607 1.6678013 28.4970328 16.9177112 -45.2753707 17.2646324
1.6600812 0.1395366 0.1437084 -0.003660 0.000352 -0.000873 -0.4992190 -0.6690400 2.0205057 23.8761794 12.8524450 -48.1808399 17.8404391
1.5868098 0.0997422 0.1177501 -0.003832 0.000357 -0.000646 -0.4086547 -0.5405624 2.4047746 19.2035074 9.0991038 -50.0629781 18.6638562
1.5074067 0.0629559 0.1005209 -0.003853 0.000319 -0.000424 -0.2695300 -0.3548567 2.5845409 14.8603928 5.6792184 -51.1726883 19.2946564
1.4231512 0.0296304 0.0910271 -0.003452 0.000123 -0.000217 -0.1310430 -0.1727062 2.7215824 10.8340106 2.6773758 -51.6769356 20.1253064
1.3347522 0.0000001 0.0881913 -0.003085 -0.000006 -0.000053 -0.0004430 0.0000018 2.6468860 7.3288824 0.0034942 -51.8100100 20.6893090
1.2420235 -0.0257371 0.0909969 -0.002499 -0.000177 0.000065 0.1081351 0.1459402 2.6575648 4.2210227 -2.2869107 -51.6715948 21.4503122
1.9337098 0.3540898 0.5462484 0.003322 -0.002135 -0.000284 -0.6029932 -0.8981840 0.1686209 46.7269711 34.5776460 -8.1333735 15.1469033
1.9459593 0.3225859 0.4693130 0.002464 -0.002065 -0.000844 0.5677306 0.7449942 -0.3118976 48.4647479 31.7496711 -16.6105573 14.6848946
1.9401044 0.2855045 0.3938975 0.001214 -0.001722 -0.001233 1.3298723 1.5607844 -1.1061992 48.1770066 28.0968790 -24.9626107 14.4785457
1.9167098 0.2440789 0.3233639 -0.000262 -0.001289 -0.001609 1.4440853 1.5297038 -1.6615619 45.9020322 23.9236425 -32.4980180 14.6442446
1.8771291 0.2001148 0.2605663 -0.001794 -0.000714 -0.001765 1.0461852 1.0030559 -1.6073015 42.0307638 19.4091168 -38.9010877 15.0715799
1.8234620 0.1555670 0.2074451 -0.003042 -0.000255 -0.001725 0.4421765 0.3812568 -0.8999944 36.9646345 14.8841642 -43.8541817 15.7615039
1.7581883 0.1121774 0.1648794 -0.003894 0.000085 -0.001506 -0.0463242 -0.0350751 0.1263592 31.3684521 10.5569783 -47.4373229 16.5776248
1.6837428 0.0712708 0.1328157 -0.004261 0.000180 -0.001186 -0.3033609 -0.1889525 1.1441616 25.6600230 6.6080932 -49.7410997 17.4875959
1.6021937 0.0337155 0.1105485 -0.004257 0.000162 -0.000831 -0.3539508 -0.1467537 1.9604486 20.2156766 3.0663183 -51.0497313 18.3994929
1.5150525 0.0000001 0.0970131 -0.003945 0.000001 -0.000495 -0.2664223 0.0000015 2.4435193 15.2505898 -0.0012535 -51.6160671 19.2900893
1.4231512 -0.0296301 0.0910272 -0.003456 -0.000123 -0.000217 -0.1310460 0.1727138 2.7216458 10.8363838 -2.6786694 -51.6769414 20.1272431
1.3264940 -0.0549914 0.0914451 -0.002898 -0.000298 -0.000007 0.0106879 0.3334983 2.8320408 7.0111200 -4.9246138 -51.4107686 20.9015843
2.0062103 0.2954369 0.5409277 0.002479 -0.002316 -0.000563 4.3088964 4.4936398 -1.0902068 56.0353573 29.7511573 -9.0613613 13.2773383
2.0121747 0.2575696 0.4594754 0.001456 -0.002060 -0.001177 6.0592702 5.4202066 -3.0431908 57.1786524 26.0234314 -18.3950704 12.7867584
1.9978363 0.2151409 0.3810614 0.000108 -0.001705 -0.001837 6.2363981 4.7971122 -4.7886414 55.6730497 21.6889569 -27.1907073 12.9083585
1.9644068 0.1699699 0.3094672 -0.001457 -0.001055 -0.002201 5.0741988 3.3208801 -5.4412079 51.8762088 16.9579068 -34.9191119 13.2582965
1.9141719 0.1241665 0.2475109 -0.002790 -0.000608 -0.002311 3.1973371 1.7229197 -4.6229332 46.2956798 12.2446532 -41.0920887 14.1187927
1.8500630 0.0796714 0.1967314 -0.003888 -0.000145 -0.002163 1.5031416 0.6141805 -2.9095027 39.7680066 7.7005445 -45.6113251 15.0164389
1.7750761 0.0379653 0.1574513 -0.004364 -0.000048 -0.001770 0.3417302 0.0828440 -0.8971419 32.9057635 3.6274163 -48.5929538 16.2055023
1.6918081 0.0000002 0.1290899 -0.004552 -0.000002 -0.001322 -0.2022987 0.0000004 0.7456666 26.3102964 0.0011357 -50.2988081 17.2223118
1.6021937 -0.0337151 0.1105485 -0.004254 -0.000164 -0.000831 -0.3539687 0.1467633 1.9605474 20.2139263 -3.0661545 -51.0496200 18.3973157
1.5074067 -0.0629556 0.1005210 -0.003854 -0.000323 -0.000423 -0.2695225 0.3548498 2.5844682 14.8602050 -5.6764754 -51.1732574 19.2946638
1.4078355 -0.0876005 0.0977078 -0.003214 -0.000499 -0.000091 -0.1182527 0.5656163 2.9750680 10.1731015 -7.8260322 -50.8707647 20.3234541
2.0670167 0.2236861 0.5363089 0.001504 -0.002156 -0.000775 12.6557255 8.7300337 -2.9740462 64.8066269 22.9980542 -9.9043937 11.4329968
2.0641854 0.1803315 0.4515218 0.000385 -0.001730 -0.001652 13.8403494 7.7245747 -6.5272819 64.7105170 18.5186402 -19.7809755 11.2560235
2.0393753 0.1341522 0.3716050 -0.000932 -0.001209 -0.002281 12.0913935 5.2780647 -8.8115053 61.5743667 13.6959931 -28.8792367 11.6079974
1.9947147 0.0873773 0.3004748 -0.002338 -0.000666 -0.002678 8.4931951 2.6583827 -8.7377673 55.9461218 8.8275281 -36.4708360 12.4515318
1.9334445 0.0421198 0.2406318 -0.003447 -0.000163 -0.002633 4.7288750 0.8226745 -6.6365233 48.6831110 4.1539073 -42.2743315 13.5810559
1.8591494 0.0000002 0.1930448 -0.004124 -0.000000 -0.002291 1.9395915 -0.0000016 -3.6928130 40.7694592 -0.0003496 -46.2364149 14.8867765
1.7750761 -0.0379649 0.1574514 -0.004370 0.000047 -0.001771 0.3417554 -0.0828510 -0.8972080 32.9077648 -3.6278435 -48.5925691 16.2064594
1.6837428 -0.0712704 0.1328157 -0.004259 -0.000178 -0.001186 -0.3033602 0.1889533 1.1441587 25.6594978 -6.6104246 -49.7408273 17.4883689