# volRat = 0.650000
# viscRat = 1.000000
# alpha = 1.000000
# shRate = 2.000000
# L2VN = -nan
# L2VT = 0.021040
# tnum = 27300
# time = 32.760000
VARIABLES = X, Y, Z, U, V, W, F_B0, F_B1, F_B2, F_0, F_1, F_2, T
ZONE N=2562 E=5120 F=FEPOINT ET=TRIANGLE
1.6491460 0.4767581 0.0000000 0.009302 -0.040118 -0.000001 7.5362872 35.0982986 0.0000063 25.7113387 66.4742086 0.0000780 16.9007266
-1.6491461 0.4634504 0.0000000 -0.002651 0.039522 -0.000001 -4.4215878 22.9168726 -0.0000020 -21.9156404 53.6337470 0.0000471 16.4697984
1.6491460 -0.4767580 0.0000000 0.009300 0.040114 -0.000000 7.5365769 -35.0997921 -0.0000031 25.7118545 -66.4755715 -0.0000176 16.9009594
-1.6491461 -0.4634503 0.0000000 -0.002651 -0.039526 -0.000000 -4.4219526 -22.9187765 0.0000039 -21.9159971 -53.6355335 0.0000358 16.4699702
0.9811894 0.0000000 0.5177388 -0.009231 0.000000 0.002165 -12.3393441 0.0000037 108.8679885 -12.7589277 -0.0001591 146.0586574 19.2608812
0.9811894 0.0000000 -0.5177389 -0.009227 -0.000000 -0.002142 -12.3369761 -0.0000036 -108.8470963 -12.7570261 -0.0000680 -146.0379017 19.2614320
-0.9811894 0.0000000 0.4979202 0.002437 -0.000001 -0.003646 3.2446746 -0.0000010 29.6635712 3.1945809 0.0002057 66.0604879 18.9744412
-0.9811894 0.0000000 -0.4979203 0.002432 -0.000001 0.003669 3.2469065 0.0000010 -29.6839755 3.1975260 0.0002214 -66.0809880 18.9749925
0.0000000 0.3401294 0.2186216 0.008757 0.000265 0.001678 2.4205164 -143.6674959 -83.6068898 1.4618270 -100.3346946 -54.8438363 21.9333356
0.0000000 -0.3401294 0.2186216 0.008753 -0.000286 0.001690 2.4262098 144.0052238 -83.8037124 1.4682146 100.6755981 -55.0425875 21.9332746
0.0000000 0.3401294 -0.2186217 0.008758 0.000253 -0.001672 2.4184104 -143.5425391 83.5339398 1.4595833 -100.2083175 54.7707362 21.9327526
0.0000000 -0.3401294 -0.2186217 0.008754 -0.000275 -0.001685 2.4239902 143.8736721 83.7268889 1.4658019 100.5426703 54.9654227 21.9329222
1.6723226 0.4697676 0.0551106 0.014833 -0.029027 -0.000463 -4.0916117 -17.2495438 -1.6619208 18.4093170 25.7679228 3.3222259 16.7279377
1.6894420 0.4561685 0.1150905 0.015158 -0.026302 -0.000870 -2.1056386 -8.0392327 -1.7654523 21.4484819 32.5836228 9.0430916 16.3364463
1.6976348 0.4360776 0.1775352 0.014862 -0.023752 -0.001083 -1.9636890 -6.9289782 -2.4783960 22.0356475 31.3870394 14.1452117 16.1712205
1.6950127 0.4098580 0.2397482 0.012786 -0.020893 -0.000861 -1.7844864 -5.9490891 -3.0685004 22.0836877 29.4954723 19.1762952 15.9018880
1.6806431 0.3782050 0.2994145 0.010573 -0.018285 -0.000648 -1.5290431 -4.9363727 -3.4512273 21.3851777 27.2287075 23.9892261 15.9086878
1.6543646 0.3422057 0.3544137 0.007312 -0.015466 -0.000423 -1.2173588 -3.9159729 -3.5837857 20.0986328 24.6222107 28.4045000 15.8634905
1.6166851 0.3032114 0.4030317 0.004036 -0.012793 -0.000068 -0.9204422 -3.0556121 -3.5891591 18.2081956 21.7967199 32.2229055 16.0843236
1.5686255 0.2626690 0.4440981 0.000445 -0.009899 0.000684 -0.6543884 -2.3510554 -3.5119128 15.9337623 18.8126857 35.3515504 16.2557502
1.5115226 0.2219500 0.4770372 -0.002554 -0.007281 0.002034 -0.4271023 -1.7881471 -3.3948266 13.3721204 15.8807129 37.8155677 16.6726617
1.4468399 0.1822264 0.5018201 -0.005435 -0.004741 0.004205 -0.2357743 -1.3274773 -3.2292100 10.7822324 13.0128003 39.6569950 16.9649629
1.3760268 0.1444071 0.5188500 -0.007459 -0.002780 0.007076 -0.0853092 -0.9974019 -3.1673720 8.2035288 10.3110780 40.8819616 17.4785020
1.3004499 0.1091333 0.5288339 -0.009174 -0.001234 0.010537 0.0408560 -0.7338079 -3.1472875 5.8257505 7.7755020 41.5987774 17.8148446
1.2214258 0.0768182 0.5326643 -0.010145 -0.000330 0.014026 0.1655801 -0.5718073 -3.5204153 3.6701161 5.4341418 41.6536230 18.3274474
1.1403303 0.0476995 0.5313541 -0.010859 0.000199 0.016878 0.3332039 -0.4437767 -4.4157829 1.9052289 3.2797857 40.9186951 18.6192623
1.0593526 0.0220499 0.5260368 -0.010499 0.000010 0.017132 0.8104165 -0.3643423 -8.2019995 0.4969479 1.3880689 38.5484763 19.1061834
1.7622160 -0.4432560 0.0637013 0.016990 0.022083 -0.000445 -2.8085424 8.1736789 -1.0211929 25.4990800 -30.8505370 5.0130444 15.4677483
1.7799443 -0.4239906 0.1299861 0.017623 0.018579 0.000993 -2.2981650 6.0145004 -1.6225681 27.3233485 -31.0457403 10.5741792 15.1211543
1.7851929 -0.3983907 0.1971972 0.016591 0.015834 0.002391 -2.0958149 5.0467484 -2.2086876 27.8548374 -29.1304626 16.1512660 14.8291835
1.7773110 -0.3668209 0.2629023 0.014572 0.013804 0.003552 -1.7505476 3.9574565 -2.5131763 27.5030908 -26.8499513 21.5883660 14.7061239
1.7560172 -0.3302923 0.3246155 0.011358 0.012138 0.004211 -1.3925948 3.0159558 -2.6283386 26.3079013 -24.1482452 26.6489717 14.7009323
1.7217678 -0.2902326 0.3801365 0.007664 0.010613 0.004077 -1.0823646 2.2953456 -2.6654941 24.2800629 -21.1592411 31.0718496 14.8807769
1.6756768 -0.2482601 0.4278431 0.003784 0.008933 0.003509 -0.8203695 1.7475800 -2.6686080 21.6632571 -18.0357504 34.7909692 15.1786627
1.6192936 -0.2059524 0.4668248 0.000144 0.006991 0.003192 -0.6101357 1.3491159 -2.7073565 18.6292102 -14.8880883 37.6575058 15.5908260
1.5543422 -0.1646681 0.4968587 -0.003145 0.004939 0.003540 -0.4284133 1.0324416 -2.7559232 15.4441306 -11.8387749 39.7904925 16.0778259
1.4825051 -0.1254547 0.5182780 -0.005681 0.003151 0.004976 -0.2662536 0.7655361 -2.7966759 12.2604903 -8.9942957 41.1941604 16.6093542
1.4052862 -0.0890341 0.5317962 -0.007819 0.001630 0.007224 -0.1238382 0.5430967 -2.8692518 9.2700250 -6.3432000 42.0400176 17.1426638
1.3239418 -0.0558463 0.5383480 -0.009285 0.000661 0.010008 0.0044589 0.3278072 -2.7986534 6.5305842 -3.9860490 42.5405418 17.6724737
1.2394193 -0.0261140 0.5389537 -0.010241 0.000088 0.012682 0.0856435 0.1177980 -2.1582513 4.0719499 -1.8873200 43.3347710 18.1872123
1.1520525 0.0000000 0.5346179 -0.010674 -0.000001 0.014208 0.0399574 -0.0000000 -0.5570196 1.8529901 0.0001173 44.8195635 18.6335554
1.8482574 -0.4074591 0.0700134 0.020645 0.010947 0.002051 -2.2645720 4.6750097 -0.7086649 32.2157078 -30.0929294 5.7837339 14.0913677
1.8648077 -0.3818783 0.1423501 0.020228 0.007408 0.004968 -1.7600222 3.2428964 -1.0726317 33.7464711 -28.2880051 11.9447174 13.5545265
1.8657713 -0.3502063 0.2144153 0.019062 0.005979 0.008461 -1.2514839 2.1003895 -1.1438835 34.0126668 -26.0106253 18.0194965 13.3894571
1.8512081 -0.3131299 0.2834040 0.015959 0.005332 0.010799 -0.8028014 1.2472577 -1.0050930 33.1831286 -23.2284546 23.8513180 13.2657893
1.8216200 -0.2720345 0.3466256 0.012476 0.005765 0.011274 -0.5658693 0.8254404 -0.9363421 31.1433466 -20.1566960 29.0574638 13.5100437
1.7782424 -0.2286669 0.4019197 0.007974 0.005716 0.010063 -0.4444351 0.6165495 -0.9638958 28.2868929 -16.8860467 33.5131852 13.7816547
1.7228836 -0.1848067 0.4479298 0.003817 0.005376 0.007964 -0.4507817 0.6016635 -1.2953520 24.7168594 -13.5667858 36.9612117 14.3684579
1.6576053 -0.1420132 0.4841538 -0.000316 0.004226 0.006059 -0.4170261 0.5410121 -1.6358947 20.9003316 -10.3556217 39.5365067 14.8934904
1.5844091 -0.1014825 0.5108046 -0.003401 0.002956 0.005174 -0.3694240 0.4696630 -2.0939631 16.9817704 -7.3528836 41.1965868 15.6296283
1.5050142 -0.0640238 0.5285939 -0.006169 0.001509 0.005652 -0.2572724 0.3219284 -2.3522650 13.2910234 -4.5963338 42.2352568 16.2172399
1.4207147 -0.0301134 0.5385043 -0.007905 0.000680 0.007267 -0.1309908 0.1597001 -2.5273473 9.8404044 -2.1767858 42.7809091 16.9699190
1.3322373 0.0000000 0.5416155 -0.009634 -0.000000 0.009738 -0.0057441 -0.0000000 -2.3171371 6.8209474 -0.0000367 43.1814866 17.4856267
1.2394193 0.0261139 0.5389537 -0.010241 -0.000087 0.012684 0.0855947 -0.1177310 -2.1570226 4.0718928 1.8873114 43.3359764 18.1871605
1.9295661 -0.3602288 0.0757251 0.023126 -0.002085 0.004710 -0.5859783 0.8639299 -0.1617687 39.1364053 -26.8668726 6.4512033 12.4801340
1.9423472 -0.3280895 0.1534001 0.022097 -0.004004 0.011011 0.4671924 -0.6065027 0.2532712 40.5123017 -24.5617150 13.1412847 12.0615158
1.9369642 -0.2903520 0.2295894 0.019975 -0.003551 0.016351 1.1746952 -1.3619726 0.9630663 40.3179637 -21.7283487 19.7479916 11.8733144
1.9139591 -0.2482475 0.3009603 0.016915 -0.001453 0.019495 1.3333495 -1.3920648 1.5091661 38.5879341 -18.5905596 25.8116506 12.0111396
1.8746694 -0.2035747 0.3646577 0.012849 0.000686 0.019335 1.0334751 -0.9735163 1.5578376 35.5959790 -15.2041421 31.1235479 12.3986058
1.8211903 -0.1582909 0.4187063 0.008215 0.002179 0.016401 0.5072254 -0.4280025 1.0096574 31.5881778 -11.7655374 35.3652545 13.0102274
1.7560077 -0.1141561 0.4621728 0.003457 0.002451 0.012113 0.0456160 -0.0336441 0.1212200 27.0768077 -8.4162891 38.5491458 13.7424124
1.6815717 -0.0725256 0.4950566 -0.000427 0.001905 0.008371 -0.2267163 0.1367925 -0.8291913 22.3839493 -5.3074222 40.6862319 14.5634219
1.5999694 -0.0343011 0.5180226 -0.003666 0.000864 0.006103 -0.3077940 0.1227442 -1.6430948 17.8352585 -2.4762299 41.9807330 15.3942086
1.5127329 0.0000000 0.5321130 -0.006143 -0.000001 0.005827 -0.2482146 -0.0000000 -2.1723574 13.6362235 0.0000878 42.6203436 16.1933746
1.4207147 0.0301134 0.5385043 -0.007906 -0.000680 0.007265 -0.1308202 -0.1594923 -2.5240571 9.8406183 2.1769568 42.7842825 16.9699843
1.3239418 0.0558463 0.5383480 -0.009285 -0.000662 0.010007 0.0044577 -0.3277141 -2.7978580 6.5305493 3.9863319 42.5413613 17.6724692
2.0031108 -0.3002067 0.0809859 0.021573 -0.012075 0.008100 3.6214610 -3.7459639 0.9060021 46.2487703 -22.5370550 7.0472202 10.7959975
2.0095109 -0.2616661 0.1631163 0.019074 -0.011230 0.016822 5.2185332 -4.6277155 2.5904725 47.1781566 -19.6759011 14.2876087 10.3505900
1.9955234 -0.2185818 0.2422739 0.017491 -0.008006 0.024008 5.4694805 -4.1638109 4.1452082 46.0884651 -16.4678018 21.1929735 10.4582724
1.9623424 -0.1727474 0.3147197 0.015799 -0.004594 0.027424 4.5571989 -2.9437938 4.8125332 43.2511190 -12.9943431 27.4356980 10.7714734
1.9122453 -0.1262525 0.3776183 0.012790 -0.001203 0.026288 2.9440491 -1.5602708 4.1797073 38.9360731 -9.4926614 32.5777384 11.5337137
1.8481692 -0.0810433 0.4293720 0.008175 0.000362 0.021318 1.4732289 -0.5895150 2.7902224 33.8329495 -6.0475970 36.5871320 12.3463627
1.7731270 -0.0386294 0.4695868 0.003573 0.000834 0.014716 0.4153333 -0.0981231 1.0626003 28.3405555 -2.8850224 39.3959899 13.4108493
1.6897400 0.0000000 0.4987834 -0.000694 -0.000000 0.009310 -0.1238685 0.0000000 -0.4428293 22.9366981 -0.0000431 41.1213747 14.3289988
1.5999694 0.0343011 0.5180226 -0.003665 -0.000864 0.006107 -0.3081263 -0.1228767 -1.6448690 17.8348908 2.4760480 41.9788732 15.3941617
1.5050142 0.0640238 0.5285939 -0.006169 -0.001510 0.005652 -0.2573351 -0.3220069 -2.3528381 13.2909701 4.5961788 42.2347023 16.2172170
1.4052862 0.0890340 0.5317962 -0.007819 -0.001628 0.007232 -0.1240784 -0.5441499 -2.8748159 9.2697516 6.3420484 42.0342292 17.1426222
2.0647712 -0.2269806 0.0855151 0.007761 -0.013359 0.010300 11.0838841 -7.6021549 2.5808230 53.1158896 -17.1801922 7.6161501 9.1325170
2.0622484 -0.1829751 0.1709103 0.005515 -0.010241 0.020269 12.2942467 -6.8170383 5.7412672 53.1884743 -13.8880793 15.2785190 8.9705680
2.0376458 -0.1361752 0.2515635 0.009546 -0.006766 0.028532 10.7673808 -4.6592300 7.7552613 50.7690277 -10.3186051 22.3742555 9.2839722
1.9930802 -0.0887556 0.3235896 0.013069 -0.003283 0.032567 7.5806149 -2.3444259 7.6870385 46.3878301 -6.7055243 28.4412544 10.0416932
1.9317930 -0.0428149 0.3844332 0.012252 -0.000910 0.030208 4.3061266 -0.7372229 5.9367241 40.7970923 -3.1972021 33.3641272 11.0558095
1.8573839 0.0000000 0.4330381 0.008239 -0.000001 0.023054 1.8545810 0.0000000 3.4556227 34.6093316 0.0000976 36.9921089 12.2160877
1.7731270 0.0386293 0.4695868 0.003575 -0.000833 0.014719 0.4146989 0.0979731 1.0609773 28.3399289 2.8848309 39.3943118 13.4109282
1.6815717 0.0725256 0.4950566 -0.000426 -0.001906 0.008371 -0.2269423 -0.1369288 -0.8300175 22.3836917 5.3074548 40.6853854 14.5634120
1.5844091 0.1014825 0.5108046 -0.003401 -0.002957 0.005172 -0.3694590 -0.4697072 -2.0941614 16.9817777 7.3528223 41.1964274 15.6296986
1.4825051 0.1254547 0.5182780 -0.005681 -0.003153 0.004973 -0.2663664 -0.7658606 -2.7978623 12.2603484 8.9941137 41.1929580 16.6093581
2.1097770 -0.1418357 0.0888821 -0.026039 -0.005812 0.009346 21.2739342 -8.3460871 4.7292697 59.7974707 -11.2097507 8.2884120 7.7402860
2.0962255 -0.0943061 0.1760039 -0.017024 -0.004257 0.019337 19.9065222 -5.3171889 8.9705330 58.1095622 -7.3822209 16.2654929 7.8512599
2.0597952 -0.0462930 0.2565065 0.001104 -0.002263 0.029677 14.6911981 -2.0637984 10.3205220 53.5246960 -3.5535019 23.0999304 8.6383755
2.0036463 0.0000000 0.3266639 0.011569 -0.000000 0.034162 8.9181595 0.0000000 8.9234231 47.5326969 -0.0000183 28.8450364 9.6651206
1.9317930 0.0428149 0.3844332 0.012251 0.000910 0.030206 4.3066903 0.7373197 5.9375013 40.7976012 3.1972427 33.3649673 11.0557386
1.8481692 0.0810433 0.4293720 0.008174 -0.000362 0.021317 1.4732984 0.5895428 2.7903540 33.8330658 6.0475280 36.5872955 12.3463389
1.7560077 0.1141562 0.4621728 0.003455 -0.002452 0.012110 0.0457762 0.0337623 0.1216457 27.0769610 8.4163593 38.5495978 13.7423591
1.6576053 0.1420133 0.4841538 -0.000317 -0.004227 0.006055 -0.4170227 -0.5410076 -1.6358812 20.9003516 10.3555203 39.5365461 14.8934665
1.5543422 0.1646681 0.4968587 -0.003146 -0.004941 0.003534 -0.4283657 -1.0323269 -2.7556170 15.4441764 11.8388349 39.7908217 16.0777808
2.1336666 -0.0482785 0.0906612 -0.067426 0.000216 0.005649 31.0920894 -3.9744613 6.7607528 66.2203819 -4.2157512 9.2064593 6.9392643
2.1079944 0.0000000 0.1777742 -0.030045 -0.000000 0.017663 23.4746365 -0.0000000 10.4561577 60.3147017 0.0000380 16.7810418 7.5255516
2.0597952 0.0462929 0.2565065 0.001106 0.002263 0.029680 14.6901561 2.0636512 10.3197900 53.5237198 3.5533225 23.0990613 8.6384280
1.9930802 0.0887557 0.3235896 0.013067 0.003282 0.032565 7.5806593 2.3444396 7.6870836 46.3878426 6.7056607 28.4413215 10.0417047
1.9122453 0.1262524 0.3776183 0.012793 0.001205 0.026294 2.9427371 1.5595754 4.1778446 38.9347694 9.4919480 32.5757154 11.5338044
1.8211903 0.1582909 0.4187063 0.008214 -0.002181 0.016397 0.5081460 0.4287793 1.0114895 31.5890289 11.7664694 35.3671528 13.0102315
1.7228836 0.1848067 0.4479298 0.003814 -0.005378 0.007956 -0.4492342 -0.5995984 -1.2909047 24.7185327 13.5689538 36.9658135 14.3685392
1.6192936 0.2059524 0.4668248 0.000143 -0.006995 0.003183 -0.6086586 -1.3458507 -2.7008013 18.6306530 14.8915852 37.6642179 15.5908236
2.1336666 0.0482784 0.0906612 -0.067422 -0.000215 0.005649 31.0909124 3.9743094 6.7604968 66.2191530 4.2155451 9.2063008 6.9392814
2.0962255 0.0943061 0.1760039 -0.017028 0.004255 0.019335 19.9075336 5.3174590 8.9709888 58.1105730 7.3825186 16.2659810 7.8512149
2.0376458 0.1361752 0.2515635 0.009540 0.006766 0.028526 10.7690918 4.6599712 7.7564921 50.7707636 10.3192945 22.3756256 9.2839467
1.9623424 0.1727475 0.3147197 0.015794 0.004591 0.027419 4.5590420 2.9449856 4.8144798 43.2530561 12.9955313 27.4377263 10.7714027
1.8746694 0.2035747 0.3646577 0.012848 -0.000688 0.019331 1.0342062 0.9742050 1.5589397 35.5967727 15.2048234 31.1247876 12.3985635
1.7782424 0.2286668 0.4019197 0.007980 -0.005706 0.010079 -0.4469640 -0.6200580 -0.9693809 28.2843006 16.8823160 33.5074131 13.7815982
1.6756768 0.2482600 0.4278431 0.003790 -0.008920 0.003529 -0.8231394 -1.7534806 -2.6776184 21.6603678 18.0295693 34.7816483 15.1786360
2.1097770 0.1418358 0.0888821 -0.026046 0.005810 0.009347 21.2748702 8.3464559 4.7294802 59.7985202 11.2101042 8.2885095 7.7403074
2.0622484 0.1829750 0.1709103 0.005522 0.010246 0.020272 12.2923523 6.8159906 5.7403826 53.1864866 13.8870262 15.2775988 8.9705970
1.9955234 0.2185817 0.2422739 0.017500 0.008013 0.024016 5.4664307 4.1614891 4.1428968 46.0853672 16.4654394 21.1904648 10.4583480
1.9139591 0.2482474 0.3009603 0.016925 0.001462 0.019505 1.3299296 1.3884933 1.5052946 38.5842169 18.5868628 25.8076072 12.0111786
1.8216200 0.2720345 0.3466256 0.012473 -0.005770 0.011271 -0.5658207 -0.8253689 -0.9362617 31.1434659 20.1568525 29.0575122 13.5101250
1.7217678 0.2902326 0.3801365 0.007663 -0.010619 0.004072 -1.0814061 -2.2933114 -2.6631347 24.2809625 21.1614129 31.0743744 14.8807846
2.0647712 0.2269805 0.0855151 0.007767 0.013365 0.010302 11.0822013 7.6010025 2.5804335 53.1141182 17.1789510 7.6158196 9.1325437
2.0095109 0.2616662 0.1631163 0.019066 0.011222 0.016817 5.2219379 4.6307334 2.5921610 47.1816777 19.6790369 14.2894230 10.3504772
1.9369642 0.2903520 0.2295894 0.019966 0.003540 0.016342 1.1785587 1.3664516 0.9662333 40.3220136 21.7329525 19.7513413 11.8733046
1.8512082 0.3131300 0.2834040 0.015945 -0.005353 0.010780 -0.7977793 -1.2394553 -0.9988048 33.1884535 23.2365783 23.8579181 13.2656621
1.7560172 0.3302923 0.3246155 0.011353 -0.012146 0.004202 -1.3906558 -3.0117577 -2.6246785 26.3099442 24.1524959 26.6527849 14.7009386
2.0031108 0.3002067 0.0809859 0.021583 0.012086 0.008104 3.6190212 3.7434403 0.9053918 46.2462488 22.5344357 7.0464932 10.7960626
1.9423472 0.3280894 0.1534001 0.022108 0.004018 0.011016 0.4638700 0.6021896 0.2514701 40.5087982 24.5571862 13.1393805 12.0615657
1.8657713 0.3502062 0.2144153 0.019075 -0.005956 0.008473 -1.2567588 -2.1092426 -1.1487044 34.0071537 26.0014472 18.0144160 13.3895534
1.7773110 0.3668208 0.2629023 0.014584 -0.013778 0.003568 -1.7549173 -3.9673339 -2.5194476 27.4984191 26.8396211 21.5817855 14.7061679
1.9295661 0.3602288 0.0757251 0.023119 0.002073 0.004707 -0.5834471 -0.8601975 -0.1610700 39.1391193 26.8708548 6.4520090 12.4801490
1.8648077 0.3818783 0.1423501 0.020221 -0.007422 0.004963 -1.7563374 -3.2361047 -1.0703858 33.7502912 28.2950601 11.9470643 13.5543719
1.7851929 0.3983908 0.1971972 0.016587 -0.015845 0.002388 -2.0937094 -5.0416731 -2.2064702 27.8570748 29.1357583 16.1535948 14.8291862
1.8482574 0.4074591 0.0700134 0.020656 -0.010924 0.002055 -2.2686945 -4.6835201 -0.7099550 32.2112856 30.0838624 5.7822914 14.0914638
1.7799443 0.4239906 0.1299861 0.017621 -0.018587 0.000989 -2.2981143 -6.0143641 -1.6225295 27.3234802 31.0459544 10.5743099 15.1212044
1.7622160 0.4432560 0.0637013 0.016988 -0.022091 -0.000448 -2.8070780 -8.1694117 -1.0206570 25.5006377 30.8551091 5.0136448 15.4677784
1.7310005 0.4570541 0.0000000 0.015251 -0.026371 -0.000000 -2.1948304 -7.3969448 -0.0000000 24.1353382 34.0831164 -0.0000141 16.0129736
1.8153151 0.4272904 0.0000000 0.019222 -0.015551 -0.000001 -2.4341144 -5.7981665 -0.0000000 29.6384529 31.2289696 0.0000288 14.5924452
1.8984055 0.3864524 0.0000000 0.022316 -0.002953 0.000000 -1.5955316 -2.7332685 -0.0000000 36.3609836 28.7065203 -0.0000433 13.1892717
1.9762283 0.3331249 0.0000000 0.023458 0.009361 -0.000000 1.4162394 1.7290617 0.0000000 43.4536121 24.9374077 -0.0000097 11.4409048
2.0447026 0.2664066 0.0000000 0.015369 0.015184 0.000000 7.6272066 6.4050241 0.0000000 50.6359345 20.0326269 -0.0000415 9.7725144
2.0990484 0.1866686 0.0000000 -0.012847 0.010051 -0.000000 17.4932952 9.2258320 0.0000000 57.7022657 14.4166092 -0.0000096 8.1125586
2.1343147 0.0962995 0.0000000 -0.065615 0.000001 0.000000 30.0555428 7.6599240 0.0000000 65.8402433 8.3242584 -0.0000269 7.0155784
2.1465769 0.0000000 0.0000000 -0.103241 -0.000001 0.000000 38.6067097 0.0000000 -0.0000000 72.1903620 0.0000295 -0.0000239 6.5030289
2.1343147 -0.0962994 0.0000000 -0.065611 -0.000002 0.000000 30.0551036 -7.6598148 -0.0000000 65.8398007 -8.3240927 -0.0000236 7.0155835
2.0990484 -0.1866686 0.0000000 -0.012837 -0.010056 0.000000 17.4911956 -9.2247211 -0.0000000 57.7001623 -14.4154354 -0.0000316 8.1126205
2.0447026 -0.2664065 0.0000000 0.015380 -0.015190 0.000000 7.6243969 -6.4026617 0.0000000 50.6328885 -20.0301591 -0.0000149 9.7725028
1.9762283 -0.3331250 0.0000000 0.023448 -0.009352 -0.000000 1.4179729 -1.7311791 0.0000000 43.4556555 -24.9396858 -0.0000372 11.4410207
1.8984055 -0.3864523 0.0000000 0.022324 0.002941 -0.000000 -1.5975965 2.7368059 -0.0000000 36.3586446 -28.7028005 -0.0000103 13.1892290
1.8153151 -0.4272904 0.0000000 0.019226 0.015540 -0.000000 -2.4364223 5.8036641 -0.0000000 29.6361078 -31.2231099 -0.0000163 14.5926344
1.7310005 -0.4570542 0.0000000 0.015240 0.026412 -0.000000 -2.1899607 7.3805332 -0.0000000 24.1403142 -34.1005074 0.0000032 16.0128860
1.6723226 -0.4697676 -0.0551105 0.014835 0.029016 0.000462 -4.0926276 17.2538449 1.6623407 18.4082551 -25.7633854 -3.3218406 16.7278398
1.6894420 -0.4561685 -0.1150905 0.015160 0.026296 0.000870 -2.1056904 8.0394294 1.7654940 21.4484898 -32.5835365 -9.0431357 16.3366412
1.6976348 -0.4360775 -0.1775352 0.014863 0.023747 0.001083 -1.9637850 6.9293148 2.4785156 22.0355732 -31.3867123 -14.1450735 16.1710843
1.6950127 -0.4098579 -0.2397482 0.012786 0.020894 0.000863 -1.7843594 5.9486662 3.0682807 22.0837699 -29.4958796 -19.1765799 15.9020839
1.6806431 -0.3782049 -0.2994145 0.010572 0.018285 0.000648 -1.5288666 4.9358029 3.4508298 21.3853777 -27.2292293 -23.9895089 15.9085458
1.6543646 -0.3422057 -0.3544137 0.007313 0.015463 0.000421 -1.2179620 3.9179166 3.5855649 20.0979483 -24.6202725 -28.4028486 15.8636965
1.6166851 -0.3032114 -0.4030317 0.004035 0.012790 0.000068 -0.9212724 3.0583736 3.5923965 18.2074153 -21.7940008 -32.2194171 16.0841443
1.5686255 -0.2626691 -0.4440981 0.000440 0.009921 -0.000651 -0.6521528 2.3430235 3.4999151 15.9359706 -18.8210584 -35.3640971 16.2560155
1.5115226 -0.2219500 -0.4770373 -0.002554 0.007286 -0.002034 -0.4271380 1.7882901 3.3951053 13.3721858 -15.8806970 -37.8151329 16.6724718
1.4468399 -0.1822264 -0.5018202 -0.005434 0.004743 -0.004209 -0.2361338 1.3294972 3.2341297 10.7817120 -13.0109070 -39.6522194 16.9652853
1.3760268 -0.1444071 -0.5188500 -0.007459 0.002767 -0.007125 -0.0859438 1.0048227 3.1909358 8.2029777 -10.3036016 -40.8569143 17.4783565
1.3004499 -0.1091333 -0.5288339 -0.009171 0.001240 -0.010519 0.0407319 0.7315792 3.1377267 5.8252737 -7.7779709 -41.6091087 17.8152387
1.2214258 -0.0768183 -0.5326644 -0.010145 0.000334 -0.013998 0.1639656 0.5662367 3.4861071 3.6687481 -5.4402097 -41.6886607 18.3272015
1.1403303 -0.0476995 -0.5313541 -0.010854 -0.000196 -0.016850 0.3312030 0.4411085 4.3892646 1.9027138 -3.2824079 -40.9460321 18.6198019
1.0593526 -0.0220499 -0.5260368 -0.010500 -0.000007 -0.017125 0.8107110 0.3644734 8.2050037 0.4975471 -1.3885051 -38.5454041 19.1058969
1.7622160 0.4432560 -0.0637012 0.016989 -0.022087 0.000447 -2.8072265 -8.1698433 1.0207106 25.5005163 30.8546395 -5.0135908 15.4677885
1.7799443 0.4239906 -0.1299861 0.017624 -0.018579 -0.000990 -2.2991732 -6.0171349 1.6232758 27.3222873 31.0430347 -10.5735855 15.1211813
1.7851929 0.3983908 -0.1971973 0.016585 -0.015852 -0.002385 -2.0919705 -5.0374841 2.2046374 27.8589458 29.1401089 -16.1555192 14.8291919
1.7773110 0.3668208 -0.2629023 0.014592 -0.013764 -0.003576 -1.7575416 -3.9732650 2.5232136 27.4954950 26.8334025 -21.5779024 14.7061238
1.7560172 0.3302923 -0.3246156 0.011350 -0.012154 -0.004194 -1.3888245 -3.0077899 2.6212202 26.3119162 24.1565709 -26.6563523 14.7009243
1.7217678 0.2902326 -0.3801365 0.007665 -0.010623 -0.004067 -1.0817786 -2.2940980 2.6640479 24.2804216 21.1605923 -31.0735912 14.8807179
1.6756768 0.2482601 -0.4278431 0.003782 -0.008938 -0.003502 -0.8210334 -1.7489923 2.6707646 21.6627054 18.0342392 -34.7888346 15.1785752
1.6192936 0.2059524 -0.4668249 0.000141 -0.007003 -0.003174 -0.6075494 -1.3433967 2.6958831 18.6317473 14.8940362 -37.6694768 15.5907301
1.5543422 0.1646681 -0.4968586 -0.003139 -0.004926 -0.003575 -0.4314510 -1.0397601 2.7754594 15.4409934 11.8310107 -39.7700524 16.0776922
1.4825051 0.1254547 -0.5182781 -0.005681 -0.003154 -0.004964 -0.2663565 -0.7658342 2.7977606 12.2603121 8.9940791 -41.1932997 16.6092280
1.4052862 0.0890340 -0.5317963 -0.007822 -0.001631 -0.007211 -0.1232293 -0.5404305 2.8551632 9.2708823 6.3456853 -42.0544005 17.1424676
1.3239418 0.0558463 -0.5383479 -0.009284 -0.000660 -0.010040 0.0044776 -0.3291773 2.8103648 6.5304808 3.9846844 -42.5279941 17.6723821
1.2394193 0.0261139 -0.5389538 -0.010242 -0.000086 -0.012672 0.0856561 -0.1178156 2.1585829 4.0721291 1.8869500 -43.3347387 18.1869550
1.1520525 0.0000000 -0.5346178 -0.010678 -0.000001 -0.014257 0.0443652 -0.0000000 0.6184662 1.8576689 0.0000956 -44.7563046 18.6334691
1.8482574 0.4074591 -0.0700134 0.020658 -0.010919 -0.002056 -2.2694903 -4.6851638 0.7102038 32.2104475 30.0821788 -5.7819842 14.0914622
1.8648077 0.3818783 -0.1423502 0.020218 -0.007427 -0.004963 -1.7548783 -3.2334170 1.0694966 33.7518324 28.2978462 -11.9479889 13.5544039
1.8657713 0.3502062 -0.2144153 0.019081 -0.005945 -0.008480 -1.2592702 -2.1134581 1.1510004 34.0045589 25.9970853 -18.0119064 13.3895391
1.8512082 0.3131300 -0.2834040 0.015939 -0.005361 -0.010774 -0.7955465 -1.2359869 0.9960095 33.1908101 23.2402057 -23.8609104 13.2657512
1.8216200 0.2720345 -0.3466256 0.012479 -0.005763 -0.011285 -0.5668229 -0.8268302 0.9379204 31.1424283 20.1553514 -29.0555756 13.5100883
1.7782424 0.2286668 -0.4019197 0.007991 -0.005695 -0.010097 -0.4488292 -0.6226443 0.9734243 28.2822469 16.8795904 -33.5032416 13.7817567
1.7228836 0.1848067 -0.4479298 0.003812 -0.005384 -0.007949 -0.4483874 -0.5984672 1.2884701 24.7195016 13.5703442 -36.9683240 14.3684800
1.6576053 0.1420133 -0.4841537 -0.000309 -0.004217 -0.006088 -0.4208056 -0.5459160 1.6507227 20.8963168 10.3504244 -39.5210819 14.8936956
1.5844091 0.1014825 -0.5108047 -0.003406 -0.002964 -0.005148 -0.3664363 -0.4658643 2.0770251 16.9850359 7.3570426 -41.2141437 15.6296383
1.5050142 0.0640238 -0.5285939 -0.006168 -0.001515 -0.005630 -0.2558199 -0.3201084 2.3389785 13.2922161 4.5981723 -42.2490873 16.2175361
1.4207147 0.0301134 -0.5385043 -0.007908 -0.000681 -0.007257 -0.1309815 -0.1596889 2.5271806 9.8407058 2.1768704 -42.7813265 16.9698642
1.3322373 0.0000000 -0.5416154 -0.009632 -0.000000 -0.009765 -0.0057519 -0.0000000 2.3202774 6.8205872 0.0000142 -43.1780618 17.4860452
1.2394193 -0.0261140 -0.5389538 -0.010241 0.000088 -0.012670 0.0856895 0.1178616 2.1594264 4.0720873 -1.8869879 -43.3339155 18.1870038
1.9295661 0.3602288 -0.0757251 0.023118 0.002072 -0.004707 -0.5831282 -0.8597273 0.1609818 39.1394987 26.8713156 -6.4520615 12.4801381
1.9423472 0.3280894 -0.1534002 0.022107 0.004017 -0.011015 0.4640794 0.6024614 -0.2515836 40.5089608 24.5574858 -13.1396103 12.0615499
1.9369642 0.2903520 -0.2295894 0.019962 0.003538 -0.016339 1.1789382 1.3668922 -0.9665445 40.3224786 21.7333732 -19.7516217 11.8732771
1.9139591 0.2482474 -0.3009603 0.016920 0.001457 -0.019500 1.3312426 1.3898644 -1.5067820 38.5854988 18.5882884 -25.8092524 12.0111420
1.8746694 0.2035747 -0.3646577 0.012857 -0.000675 -0.019351 1.0316493 0.9717975 -1.5550871 35.5942220 15.2022669 -31.1207088 12.3985302
1.8211903 0.1582909 -0.4187063 0.008224 -0.002170 -0.016413 0.5064987 0.4273900 -1.0082101 31.5871260 11.7649128 -35.3636877 13.0101752
1.7560077 0.1141562 -0.4621728 0.003450 -0.002455 -0.012096 0.0474972 0.0350316 -0.1262192 27.0788853 8.4176163 -38.5544023 13.7422969
1.6815717 0.0725256 -0.4950566 -0.000431 -0.001909 -0.008353 -0.2243728 -0.1353784 0.8206198 22.3862729 5.3089897 -40.6951953 14.5633181
1.5999694 0.0343011 -0.5180225 -0.003662 -0.000863 -0.006135 -0.3096436 -0.1234807 1.6529709 17.8334812 2.4751861 -41.9701894 15.3940684
1.5127329 0.0000000 -0.5321129 -0.006136 -0.000001 -0.005867 -0.2506876 -0.0000000 2.1939903 13.6334706 0.0000422 -42.5979383 16.1932719
1.4207147 -0.0301134 -0.5385043 -0.007909 0.000682 -0.007259 -0.1311488 0.1598928 2.5304096 9.8405951 -2.1767101 -42.7780048 16.9697618
1.3239418 -0.0558463 -0.5383479 -0.009285 0.000659 -0.010041 0.0044775 0.3291749 2.8103446 6.5304852 -3.9845732 -42.5279861 17.6724164
2.0031108 0.3002067 -0.0809858 0.021588 0.012090 -0.008105 3.6177092 3.7420831 -0.9050629 46.2448597 22.5330718 -7.0460658 10.7960694
2.0095109 0.2616662 -0.1631164 0.019064 0.011220 -0.016815 5.2221112 4.6308876 -2.5922462 47.1818784 19.6791822 -14.2895629 10.3505152
1.9955234 0.2185817 -0.2422739 0.017496 0.008009 -0.024014 5.4665038 4.1615448 -4.1429522 46.0854587 16.4655589 -21.1904291 10.4583461
1.9623424 0.1727475 -0.3147197 0.015789 0.004589 -0.027415 4.5594943 2.9452791 -4.8149595 43.2535318 12.9958031 -27.4383013 10.7714820
1.9122453 0.1262524 -0.3776183 0.012787 0.001204 -0.026289 2.9436774 1.5600767 -4.1791820 38.9358510 9.4925906 -32.5770618 11.5337842
1.8481692 0.0810433 -0.4293721 0.008166 -0.000364 -0.021304 1.4755702 0.5904526 -2.7946584 33.8353796 6.0484688 -36.5918828 12.3464815
1.7731270 0.0386293 -0.4695868 0.003583 -0.000833 -0.014742 0.4123749 0.0974236 -1.0550315 28.3375015 2.8843833 -39.3878717 13.4108930
1.6897400 0.0000000 -0.4987834 -0.000696 -0.000000 -0.009299 -0.1239103 -0.0000000 0.4429786 22.9366027 -0.0000265 -41.1216735 14.3292142
1.5999694 -0.0343010 -0.5180225 -0.003661 0.000863 -0.006135 -0.3096716 0.1234919 1.6531207 17.8334351 -2.4752013 -41.9700571 15.3941404
1.5050142 -0.0640238 -0.5285939 -0.006168 0.001514 -0.005631 -0.2557996 0.3200828 2.3387921 13.2922040 -4.5981825 -42.2492661 16.2175544
1.4052862 -0.0890341 -0.5317963 -0.007822 0.001633 -0.007202 -0.1229875 0.5393699 2.8495601 9.2710985 -6.3468612 -42.0602319 17.1425356
2.0647712 0.2269805 -0.0855152 0.007766 0.013365 -0.010301 11.0826717 7.6013250 -2.5805414 53.1146453 17.1792242 -7.6158985 9.1325236
2.0622484 0.1829750 -0.1709104 0.005519 0.010243 -0.020269 12.2932423 6.8164805 -5.7407963 53.1873512 13.8875396 -15.2781009 8.9705741
2.0376458 0.1361752 -0.2515636 0.009538 0.006763 -0.028523 10.7698991 4.6603158 -7.7570707 50.7716470 10.3196125 -22.3761905 9.2839120
1.9930802 0.0887557 -0.3235897 0.013065 0.003280 -0.032560 7.5812105 2.3446084 -7.6876394 46.3883309 6.7058271 -28.4419538 10.0416671
1.9317930 0.0428149 -0.3844332 0.012245 0.000910 -0.030199 4.3069313 0.7373609 -5.9378336 40.7979345 3.1971682 -33.3652060 11.0556909
1.8573839 0.0000000 -0.4330382 0.008236 -0.000001 -0.023049 1.8541458 0.0000000 -3.4548158 34.6088732 0.0000827 -36.9914589 12.2160295
1.7731270 -0.0386294 -0.4695868 0.003581 0.000834 -0.014739 0.4130120 -0.0975742 -1.0566614 28.3381726 -2.8845776 -39.3895312 13.4107837
1.6815717 -0.0725256 -0.4950566 -0.000431 0.001907 -0.008353 -0.2242472 0.1353027 0.8201607 22.3864266 -5.3089370 -40.6956778 14.5633360